  60
# Step 119, RM=C2N3[396] (5 atoms), C8H15N2[185] (25 atoms), C8H15N2[264] (25 atoms), C2N3[36] (5 atoms)
  C   0.02817   1.07888   0.24713
  C   0.07112  -1.06272  -0.35921
  N   0.12821   0.16600  -0.62929
  N  -0.00644   1.98388   0.97857
  N  -0.20690  -2.16374  -0.25316
  C   3.66812   4.00143   5.94232
  C   3.46780   2.40343   4.08488
  C   3.35443   3.15883   7.23092
  C   1.85394   3.88293   4.30172
  C   1.57352   3.10393   3.25345
  C   2.62529   3.91623   8.29382
  C   3.04037   1.39143   1.89260
  C   1.11851   4.02393   7.99652
  H   4.31506   1.77753   4.32319
  H   4.74494   4.14743   5.85716
  H   3.35387   5.04233   6.01937
  H   1.33240   4.72763   4.72714
  H   0.70311   3.23093   2.62682
  H   4.25913   2.78253   7.70842
  H   2.89949   2.22383   6.90402
  H   2.81875   3.60163   9.31932
  H   3.07825   4.90273   8.39322
  H   2.87577   0.31773   1.98234
  H   2.55171   1.67913   0.96170
  H   4.07802   1.59443   1.62769
  H   0.60337   4.54053   8.80642
  H   0.56274   3.08913   7.92332
  H   0.97895   4.55433   7.05462
  N   3.04752   3.45273   4.77396
  N   2.64365   2.19483   3.07321
  C  -3.27489  -6.82536   3.25248
  C  -3.41789  -4.92775   1.63428
  C  -4.67309  -7.37799   2.94403
  C  -1.45529  -5.18815   2.50670
  C  -1.43779  -4.07474   1.77579
  C  -4.84119  -8.04455   1.55661
  C  -3.04299  -2.83948   0.37006
  C  -6.27639  -8.56686   1.44762
  H  -4.44289  -5.06333   1.32243
  H  -3.41579  -6.44829   4.26543
  H  -2.52449  -7.60931   3.35429
  H  -0.63529  -5.65180   3.03499
  H  -0.67069  -3.36304   1.50854
  H  -5.01019  -8.19493   3.58207
  H  -5.38409  -6.55276   2.98395
  H  -4.12629  -8.84876   1.38256
  H  -4.69319  -7.28312   0.79083
  H  -2.52939  -2.67360  -0.57695
  H  -4.12119  -2.86094   0.21152
  H  -2.89589  -1.86486   0.83544
  H  -6.93429  -7.69911   1.39955
  H  -6.35659  -9.03669   0.46736
  H  -6.57289  -9.35834   2.13591
  N  -2.73469  -5.69728   2.42526
  N  -2.67539  -3.92227   1.26207
  C  -0.84559   0.22923   3.52026
  C   0.14201  -1.78797   3.46452
  N   0.02441  -0.59597   2.97554
  N  -1.59819   0.90773   4.13104
  N   0.38051  -2.83857   3.84244
