  52
# Step 102, RM=Cl[248] (1 atoms), C8H15N2[250] (25 atoms), C8H15N2[484] (25 atoms), Cl[43] (1 atoms)
  Cl   0.00000   0.00000   0.00000
  C  -4.37710  -0.74650  -2.77238
  C  -3.07340   1.08530  -1.60608
  C  -3.63210  -1.95590  -2.23688
  C  -5.17680   1.46570  -1.84158
  C  -4.65940   2.58020  -1.34098
  C  -3.65820  -2.19040  -0.73138
  C  -2.30400   2.99210  -0.35078
  C  -2.49420  -3.12320  -0.32648
  H  -2.10880   0.59950  -1.60508
  H  -4.13360  -0.67440  -3.83238
  H  -5.43880  -0.97390  -2.86918
  H  -6.18170   1.27880  -2.19038
  H  -5.18520   3.50650  -1.16188
  H  -3.96980  -2.85030  -2.76058
  H  -2.58400  -2.01920  -2.52978
  H  -4.65800  -2.58570  -0.55178
  H  -3.50900  -1.28250  -0.14698
  H  -2.52570   4.04530  -0.17858
  H  -1.96500   2.48050   0.55002
  H  -1.39040   3.12930  -0.92918
  H  -2.65690  -4.08990  -0.80298
  H  -2.43080  -3.24460   0.75492
  H  -1.54430  -2.76170  -0.72038
  N  -4.18130   0.54910  -2.05358
  N  -3.33770   2.22670  -1.08938
  C   0.18750  -3.77360  -5.24805
  C  -0.65540  -1.46740  -5.23327
  C  -0.12890  -4.91560  -4.22632
  C   0.61290  -1.86810  -3.59782
  C   0.16570  -0.59970  -3.48760
  C  -1.44560  -4.72160  -3.49607
  C  -0.88230   1.02290  -5.03987
  C  -1.67430  -5.97320  -2.65867
  H  -1.09850  -1.55380  -6.21440
  H  -0.53590  -3.90720  -6.05233
  H   1.20140  -3.83830  -5.64313
  H   1.16390  -2.45280  -2.87606
  H   0.29340   0.12640  -2.69836
  H   0.65750  -5.07200  -3.48792
  H  -0.22850  -5.84770  -4.78240
  H  -2.19280  -4.58280  -4.27749
  H  -1.44530  -3.89470  -2.78592
  H  -0.05130   1.66980  -4.75870
  H  -1.02090   1.07420  -6.11980
  H  -1.85450   1.32470  -4.65032
  H  -2.57450  -5.97520  -2.04414
  H  -1.90280  -6.78770  -3.34601
  H  -0.78260  -6.30640  -2.12775
  N   0.06880  -2.41810  -4.74541
  N  -0.52380  -0.36390  -4.59678
  Cl  -1.58720   5.22460   2.01147
