  52
# Step 988, RM=Cl[487] (1 atoms), C8H15N2[414] (25 atoms), C8H15N2[493] (25 atoms), Cl[228] (1 atoms)
  Cl   0.00000   0.00000   0.00000
  C   6.96800  -1.19906   0.73880
  C   5.66910   0.85076   1.09550
  C   6.68950  -2.54341   1.08320
  C   4.59320  -0.71971   0.08710
  C   3.66450   0.18152   0.40040
  C   5.94420  -2.75320   2.50180
  C   3.87270   2.21259   2.01780
  C   5.87070  -4.21056   3.02240
  H   6.42660   1.39064   1.64420
  H   7.57790  -0.65597   1.46060
  H   7.55010  -1.12718  -0.17990
  H   4.50640  -1.62975  -0.48790
  H   2.58840   0.09350   0.37460
  H   7.62830  -3.08337   1.20650
  H   6.11250  -3.00839   0.28380
  H   4.95750  -2.29066   2.47770
  H   6.56860  -2.24340   3.23540
  H   4.56350   3.05229   2.09430
  H   2.99120   2.67609   1.57490
  H   3.56100   1.84369   2.99490
  H   5.06820  -4.78354   2.55780
  H   5.70390  -4.14470   4.09760
  H   6.80840  -4.75765   2.92560
  N   5.82760  -0.30246   0.52480
  N   4.37580   1.09943   1.21260
  C  -6.03050   3.37229   0.37070
  C  -4.71970   1.99819  -1.14210
  C  -6.12240   3.80019   1.87910
  C  -4.32460   1.53153   0.91120
  C  -3.30560   1.05710   0.20990
  C  -7.45760   3.22579   2.52870
  C  -2.84170   0.78282  -2.29960
  C  -7.80820   3.84299   3.84720
  H  -5.15100   2.39729  -2.04830
  H  -5.64000   4.20309  -0.21700
  H  -7.01140   3.23559  -0.08460
  H  -4.55850   1.50818   1.96530
  H  -2.42260   0.49023   0.46570
  H  -6.19310   4.88699   1.92400
  H  -5.25940   3.58479   2.50910
  H  -7.36950   2.14869   2.67040
  H  -8.33320   3.40789   1.90560
  H  -3.11980   1.24813  -3.24520
  H  -3.01190  -0.28467  -2.43960
  H  -1.80650   1.10704  -2.19320
  H  -8.67840   3.41159   4.34190
  H  -7.93850   4.92509   3.86200
  H  -7.05320   3.62849   4.60350
  N  -5.15170   2.21459   0.05850
  N  -3.61800   1.26599  -1.17370
  Cl  -3.76840  -2.72274  -3.40950
