  52
# Step 620, RM=Cl[76] (1 atoms), C8H15N2[225] (25 atoms), C8H15N2[311] (25 atoms), Cl[70] (1 atoms)
  Cl   0.00000   0.00000   0.00000
  C   2.91260   1.78479  -3.57460
  C   1.30900   2.45917  -1.82580
  C   3.22830   2.07502  -5.01420
  C   1.13420   3.60480  -3.65060
  C   0.11530   3.90100  -2.85230
  C   4.19440   1.00245  -5.64340
  C  -0.58050   3.48042  -0.44580
  C   4.45190   1.31034  -7.10350
  H   1.63640   1.69961  -1.13140
  H   2.58690   0.74557  -3.52930
  H   3.84730   1.82849  -3.01550
  H   1.34120   3.94089  -4.65590
  H  -0.58340   4.69621  -3.06640
  H   2.35250   2.02431  -5.66100
  H   3.63460   3.06845  -5.20420
  H   5.15310   1.03474  -5.12580
  H   3.71930   0.02227  -5.60270
  H  -1.49020   2.93625  -0.19200
  H   0.02880   3.38432   0.45290
  H  -0.96300   4.49736  -0.53300
  H   3.56320   1.33526  -7.73420
  H   4.92100   2.28467  -7.24050
  H   5.07080   0.49555  -7.47920
  N   1.83730   2.62658  -3.01680
  N   0.24630   3.23973  -1.67730
  C   1.01940  -3.67007  -4.92790
  C  -0.82670  -4.45577  -3.35330
  C   1.24170  -2.35157  -5.72610
  C   0.10370  -2.56697  -2.79950
  C  -0.71200  -2.91757  -1.84010
  C   0.00920  -2.02497  -6.48490
  C  -2.46004  -4.56737  -1.41990
  C   0.16670  -0.60077  -7.13890
  H  -0.99430  -5.45237  -3.73440
  H   0.77270  -4.56997  -5.49130
  H   2.00310  -3.81987  -4.48300
  H   0.72920  -1.68657  -2.79190
  H  -0.79290  -2.39337  -0.89930
  H   1.64140  -1.57247  -5.07700
  H   1.98690  -2.58957  -6.48520
  H  -0.26340  -2.79377  -7.20790
  H  -0.81430  -1.97387  -5.77270
  H  -3.36406  -3.96927  -1.30540
  H  -2.71024  -5.59127  -1.69740
  H  -1.90313  -4.57197  -0.48290
  H  -0.74790  -0.15137  -7.52570
  H   0.88160  -0.71937  -7.95310
  H   0.58350   0.06143  -6.37990
  N   0.08400  -3.59637  -3.75880
  N  -1.34090  -4.07317  -2.21340
  Cl   0.01090  -4.76817   1.42450
