  52
# Step 512, RM=Cl[72] (1 atoms), C8H15N2[193] (25 atoms), C8H15N2[204] (25 atoms), Cl[459] (1 atoms)
  Cl   0.00000   0.00000   0.00000
  C   0.59280   4.10520   0.72053
  C  -1.13310   5.45290   1.83302
  C   0.94990   3.16370  -0.37725
  C  -1.57170   5.03950  -0.22904
  C  -2.65350   5.56840   0.26346
  C   1.52780   3.87980  -1.59952
  C  -3.30020   6.61120   2.46644
  C   1.03980   3.07880  -2.88239
  H  -0.68890   5.58780   2.80817
  H   1.39900   4.82970   0.83619
  H   0.60990   3.55070   1.65880
  H  -1.32730   4.81280  -1.25630
  H  -3.56710   5.95910  -0.15981
  H   1.78690   2.55040  -0.04332
  H   0.11650   2.48950  -0.57499
  H   1.23880   4.92860  -1.66653
  H   2.61640   3.91410  -1.55699
  H  -3.68210   7.42530   1.85053
  H  -4.17090   5.99470   2.68967
  H  -2.92980   6.94880   3.43440
  H   0.05330   2.62000  -2.81645
  H   1.81550   2.35490  -3.13175
  H   1.00780   3.73690  -3.75076
  N  -0.63340   4.86340   0.79531
  N  -2.37890   5.89270   1.62820
  C  -2.98020   0.52070  -3.83420
  C  -4.29560   2.21680  -2.52580
  C  -3.37640   1.13850  -5.17380
  C  -2.95520   1.11560  -1.33410
  C  -3.50120   2.02400  -0.49700
  C  -2.69460   2.55560  -5.32490
  C  -5.48840   3.57810  -0.91750
  C  -2.57400   3.00330  -6.77170
  H  -5.06130   2.39880  -3.26530
  H  -1.91620   0.29180  -3.77430
  H  -3.44360  -0.45500  -3.68790
  H  -2.21020   0.35680  -1.14560
  H  -3.47980   2.24780   0.55930
  H  -4.45910   1.23320  -5.25640
  H  -2.91780   0.45760  -5.89080
  H  -3.19970   3.26260  -4.66680
  H  -1.66660   2.44460  -4.98010
  H  -6.32660   3.01830  -0.50260
  H  -5.13920   4.29240  -0.17190
  H  -5.85940   4.05620  -1.82400
  H  -1.77720   3.74270  -6.85220
  H  -2.58160   2.24910  -7.55860
  H  -3.53520   3.42290  -7.06870
  N  -3.29920   1.32870  -2.63710
  N  -4.40960   2.69530  -1.28400
  Cl  -3.98370   3.21800   2.84100
