  60
# Step 4743, RM=C2N3[227] (5 atoms), C8H15N2[79] (25 atoms), C8H15N2[360] (25 atoms), C2N3[297] (5 atoms)
  C   0.34948  -0.64171   0.83401
  C  -0.32832   0.77549  -0.71719
  N   0.06908   0.59749   0.51291
  N   0.57238  -1.67491   1.20721
  N  -0.65962   0.96269  -1.82029
  C   3.37148   1.90502  -3.52579
  C   2.56458   2.42417  -1.16839
  C   2.39748   1.83913  -4.72959
  C   2.66818   4.13783  -2.54649
  C   2.17858   4.56658  -1.41139
  C   1.25578   0.87724  -4.62029
  C   1.60328   3.51725   0.76241
  C   0.49418   0.57676  -5.91009
  H   2.50498   1.39835  -0.83589
  H   3.51008   0.92553  -3.06809
  H   4.39098   2.20467  -3.76879
  H   2.73248   4.70630  -3.46259
  H   1.75278   5.48833  -1.04339
  H   2.00308   2.84752  -4.85499
  H   3.02338   1.60297  -5.59009
  H   1.76458  -0.03445  -4.30729
  H   0.45118   1.11296  -3.92379
  H   0.56128   3.81747   0.87281
  H   1.65348   2.49787   1.14511
  H   2.19318   4.08331   1.48331
  H  -0.13272   1.43769  -6.14219
  H   1.14068   0.36990  -6.76299
  H  -0.17342  -0.27787  -5.80079
  N   2.90548   2.76890  -2.42719
  N   2.15008   3.50411  -0.57119
  C  -3.13482  -0.66208  -4.03389
  C  -1.00852  -1.84621  -3.19509
  C  -4.33182  -1.15548  -4.82309
  C  -2.85052  -2.36759  -2.17419
  C  -1.80512  -2.85098  -1.47319
  C  -5.21712  -0.03634  -5.36169
  C   0.66128  -3.13583  -1.92419
  C  -5.88952  -0.41090  -6.67489
  H  -0.25942  -1.36914  -3.80969
  H  -3.50722   0.00791  -3.25889
  H  -2.40862  -0.15780  -4.67139
  H  -3.92432  -2.41049  -2.06769
  H  -1.87492  -3.50316  -0.61519
  H  -3.85222  -1.67643  -5.65179
  H  -4.79502  -1.96794  -4.26329
  H  -4.65952   0.87911  -5.55969
  H  -5.91592   0.18469  -4.55499
  H   0.55908  -3.03604  -0.84359
  H   0.77358  -4.16913  -2.25249
  H   1.42428  -2.41541  -2.21919
  H  -5.17002  -0.50814  -7.48789
  H  -6.37172  -1.37989  -6.54579
  H  -6.59482   0.32370  -7.06349
  N  -2.31762  -1.57673  -3.16409
  N  -0.68512  -2.71688  -2.29339
  C  -3.41992  -1.13901   7.44921
  C  -2.22612  -1.08591   5.61171
  N  -3.44032  -1.30631   6.13871
  N  -3.23812  -0.85871   8.56451
  N  -1.17572  -0.82171   5.14051
