  60
# Step 32, RM=C2N3[196] (5 atoms), C8H15N2[256] (25 atoms), C8H15N2[290] (25 atoms), C2N3[367] (5 atoms)
  C  -0.36985  -0.91391   0.44644
  C   0.37925   0.96540  -0.26494
  N  -0.06945   0.32975   0.69745
  N  -0.57275  -2.01317   0.32040
  N   0.63415   1.63927  -1.17347
  C   2.11345   1.88770   3.56632
  C   2.71215   3.11245   5.55201
  C   2.71295   0.72803   2.79564
  C   4.10655   3.33035   3.91979
  C   4.54615   4.05095   4.97163
  C   3.22615  -0.39501   3.68670
  C   3.75745   4.43205   7.36826
  C   3.55965  -1.62991   2.80290
  H   1.99935   2.66860   6.23119
  H   1.19245   1.57098   4.05594
  H   1.62175   2.60377   2.90779
  H   4.52535   3.26825   2.92623
  H   5.47245   4.59385   5.08820
  H   1.92985   0.34781   2.13968
  H   3.62965   0.96198   2.25435
  H   4.17075  -0.15102   4.17287
  H   2.51715  -0.59684   4.48957
  H   4.10015   3.69775   8.09720
  H   4.53455   5.19635   7.36295
  H   2.78745   4.75505   7.74647
  H   4.14135  -2.36714   3.35627
  H   2.66135  -2.08568   2.38631
  H   4.20565  -1.33712   1.97527
  N   2.99965   2.61837   4.34752
  N   3.67105   3.89185   6.00911
  C   2.84345  -0.61835  -7.43598
  C   0.94815  -0.41252  -5.73808
  C   4.19045  -1.37246  -7.43528
  C   2.91425  -0.14849  -4.94448
  C   2.09235  -0.08346  -3.90928
  C   4.10865  -2.83512  -6.89698
  C  -0.39855  -0.20968  -3.64748
  C   3.44695  -3.76663  -7.96688
  H   0.06325  -0.44501  -6.35638
  H   2.05385  -1.17909  -7.93618
  H   2.95365   0.29701  -8.01738
  H   3.99365  -0.13101  -4.97658
  H   2.24165   0.08337  -2.85268
  H   4.38515  -1.41214  -8.50708
  H   5.07925  -0.78032  -7.21748
  H   3.69395  -2.83572  -5.88898
  H   5.17525  -3.05004  -6.83078
  H  -1.31275  -0.40020  -4.20958
  H  -0.41025  -0.86174  -2.77408
  H  -0.46175   0.78749  -3.21178
  H   4.07255  -4.08782  -8.79968
  H   2.97495  -4.63293  -7.50338
  H   2.51685  -3.36413  -8.36818
  N   2.23365  -0.43622  -6.10538
  N   0.82235  -0.30803  -4.43698
  C   4.75605   0.08235  -1.39746
  C   4.98055   2.16556  -0.62282
  N   5.05025   0.91666  -0.37791
  N   4.32755  -0.69063  -2.15832
  N   4.93815   3.26795  -0.92522
