  52
# Step 393, RM=Cl[48] (1 atoms), C8H15N2[460] (25 atoms), C8H15N2[477] (25 atoms), Cl[237] (1 atoms)
  Cl   0.00000   0.00000   0.00000
  C   1.29070   2.09960  -3.57790
  C   2.92940   1.27510  -1.83550
  C   1.01260   3.56640  -3.36330
  C   3.77140   1.58130  -3.78910
  C   4.74500   1.07560  -3.00280
  C   1.15680   4.12760  -1.98110
  C   4.91040   0.63940  -0.55700
  C   0.83270   5.62570  -1.99860
  H   2.22850   1.28780  -1.01400
  H   0.58780   1.46300  -3.04050
  H   1.23550   1.78530  -4.62010
  H   3.82950   1.81920  -4.84100
  H   5.77860   0.86760  -3.23700
  H   0.00070   3.69030  -3.74910
  H   1.71150   4.11960  -3.99050
  H   0.47930   3.72420  -1.22850
  H   2.18550   4.08140  -1.62370
  H   5.44660  -0.28530  -0.77050
  H   4.34320   0.45970   0.35640
  H   5.75080   1.28890  -0.31230
  H   1.38830   6.16200  -2.76800
  H   0.91340   6.17470  -1.06040
  H  -0.17550   5.78040  -2.38290
  N   2.60380   1.61640  -3.04470
  N   4.19400   1.01310  -1.74650
  C  -2.28810   4.23940  -0.50030
  C  -2.82390   4.04530  -2.91680
  C  -1.68650   3.38010   0.64450
  C  -2.13060   2.18660  -1.98300
  C  -2.47440   1.94000  -3.26350
  C  -1.69830   4.20690   1.90460
  C  -3.11470   3.16010  -5.30630
  C  -1.15470   3.56200   3.12970
  H  -3.18840   5.05110  -3.06460
  H  -1.78820   5.18630  -0.70420
  H  -3.25800   4.57410  -0.13220
  H  -1.54790   1.54710  -1.33660
  H  -2.26650   1.05170  -3.84160
  H  -0.71010   2.93430   0.45480
  H  -2.39280   2.56920   0.82260
  H  -2.70010   4.58960   2.09970
  H  -1.16190   5.14900   1.79150
  H  -3.26890   4.17720  -5.66680
  H  -2.26750   2.72450  -5.83590
  H  -3.95510   2.55130  -5.63990
  H  -2.05650   3.18330   3.61080
  H  -0.51900   2.76140   2.75130
  H  -0.68070   4.30670   3.76910
  N  -2.43340   3.49220  -1.74500
  N  -2.83040   3.10320  -3.87170
  Cl  -4.21420  -2.88310   1.07040
