  60
# Step 276, RM=C2N3[47] (5 atoms), C8H15N2[118] (25 atoms), C8H15N2[368] (25 atoms), C2N3[107] (5 atoms)
  C   0.71788  -0.35273  -0.80000
  C  -0.79212   0.32727   0.73000
  N  -0.42212   0.21727  -0.52000
  N   1.71788  -0.77273  -1.19000
  N  -1.23212   0.57727   1.77000
  C  -4.14212  -0.34273   1.65637
  C  -5.78212   1.41727   2.44637
  C  -5.28212  -1.15273   1.01637
  C  -3.79212   1.56727   3.32637
  C  -4.56212   2.52727   3.87637
  C  -4.67212  -2.34273   0.30637
  C  -6.96212   3.24727   3.62637
  C  -5.74212  -3.22273  -0.38363
  H  -6.65212   1.15727   1.86637
  H  -3.50212   0.02727   0.86637
  H  -3.53212  -0.98273   2.28637
  H  -2.75212   1.31727   3.48637
  H  -4.33212   3.30727   4.58637
  H  -6.00212  -1.47273   1.77637
  H  -5.81212  -0.52273   0.30637
  H  -4.15212  -2.97273   1.02637
  H  -3.95212  -2.01273  -0.43363
  H  -7.28212   3.07727   4.65637
  H  -7.82212   3.05727   2.97637
  H  -6.74212   4.31727   3.56637
  H  -5.30212  -4.12273  -0.82363
  H  -6.49212  -3.56273   0.33637
  H  -6.23212  -2.64273  -1.16363
  N  -4.59212   0.83727   2.44637
  N  -5.80212   2.41727   3.30637
  C   5.78788  -0.29910  -4.56000
  C   6.13788  -2.31910  -3.14000
  C   5.79788   1.15090  -4.09000
  C   4.38788  -1.15910  -2.62000
  C   4.50788  -2.15910  -1.74000
  C   5.98788   2.14090  -5.25000
  C   6.08788  -4.12910  -1.45000
  C   4.74788   2.33090  -6.11000
  H   6.98788  -2.71910  -3.67000
  H   6.74788  -0.56910  -5.00000
  H   5.06788  -0.43910  -5.37000
  H   3.62788  -0.39910  -2.68000
  H   3.88788  -2.42910  -0.90000
  H   6.61788   1.25090  -3.38000
  H   4.86788   1.38090  -3.58000
  H   6.79788   1.79090  -5.89000
  H   6.26788   3.10090  -4.82000
  H   6.40788  -3.97910  -0.42000
  H   5.28788  -4.87910  -1.44000
  H   6.92788  -4.53910  -2.00000
  H   4.47788   1.42090  -6.65000
  H   3.90788   2.61090  -5.48000
  H   4.89788   3.09090  -6.87000
  N   5.46788  -1.23910  -3.47000
  N   5.62788  -2.87910  -2.08000
  C  -1.73212  -6.22273  -1.16000
  C  -1.72212  -4.37273   0.06000
  N  -2.37212  -5.41273  -0.36000
  N  -1.23212  -7.06273  -1.79000
  N  -1.16212  -3.41273   0.35000
