  60
# Step 465, RM=C2N3[30] (5 atoms), C8H15N2[290] (25 atoms), C8H15N2[373] (25 atoms), C2N3[443] (5 atoms)
  C   0.27698  -1.06060   0.10302
  C  -0.45302   1.03940   0.00302
  N  -0.72302  -0.26060   0.10302
  N   1.14698  -1.86060   0.10302
  N  -0.27302   2.13940  -0.29698
  C  -1.81302   6.93940  -0.10061
  C  -2.04302   6.63940  -2.60061
  C  -3.15302   7.63940   0.09939
  C  -1.52302   4.83940  -1.50061
  C  -1.62302   4.53940  -2.80061
  C  -4.36302   6.73940  -0.00061
  C  -2.05302   5.73940  -4.90061
  C  -5.67302   7.43940   0.39939
  H  -2.29302   7.63940  -2.80061
  H  -1.52302   6.33940   0.69939
  H  -1.04302   7.73940  -0.20061
  H  -1.29302   4.23940  -0.60061
  H  -1.48302   3.53940  -3.20061
  H  -3.12302   8.13940   1.09939
  H  -3.25302   8.43940  -0.60061
  H  -4.46302   6.33940  -1.00061
  H  -4.21302   5.83940   0.59939
  H  -2.84302   5.13940  -5.30061
  H  -2.31302   6.73940  -5.20061
  H  -1.12302   5.53940  -5.40061
  H  -5.59302   7.73940   1.49939
  H  -6.51302   6.73940   0.29939
  H  -5.87302   8.23940  -0.20061
  N  -1.79302   6.13940  -1.40061
  N  -1.91302   5.63940  -3.50061
  C   5.17698   3.53940  -3.60061
  C   3.86698   3.93940  -1.50061
  C   5.09698   4.13940  -4.90061
  C   2.68698   3.33940  -3.20061
  C   1.86698   3.43940  -2.20061
  C   4.86698   5.73940  -4.90061
  C   2.08698   4.03940   0.29939
  C   4.87698   6.33940  -6.20061
  H   4.67698   4.13940  -0.80061
  H   5.42698   2.43940  -3.70061
  H   6.01698   3.93940  -3.00061
  H   2.46698   3.03940  -4.20061
  H   0.79698   3.23940  -2.10061
  H   4.33698   3.73940  -5.50061
  H   6.05698   4.03940  -5.40061
  H   5.62698   6.13940  -4.20061
  H   3.90698   5.93940  -4.40061
  H   1.93698   3.03940   0.79939
  H   2.75698   4.63940   0.89939
  H   1.13698   4.53940   0.29939
  H   4.10698   5.93940  -6.90061
  H   4.69698   7.43940  -6.20061
  H   5.82698   6.23940  -6.70061
  N   3.95698   3.63940  -2.70061
  N   2.61698   3.83940  -1.10061
  C   2.92061  -6.26423   0.10302
  C   4.75061  -6.56423   1.30302
  N   3.76061  -7.06423   0.70302
  N   2.15061  -5.46423  -0.29698
  N   5.67061  -6.16423   1.90302
