  60
# Step 12451, RM=C2N3[156] (5 atoms), C8H15N2[149] (25 atoms), C8H15N2[496] (25 atoms), C2N3[433] (5 atoms)
  C  -0.95844   0.39055   0.37366
  C   0.95776  -0.51915  -0.20394
  N   0.03966  -0.38445   0.69966
  N  -1.92494   0.99985   0.07386
  N   1.88586  -0.50515  -0.91904
  C  -7.06334  -2.66445   2.59376
  C  -4.57874  -2.93945   2.45626
  C  -7.03624  -2.75025   4.10376
  C  -5.53654  -1.39915   1.14636
  C  -4.18354  -1.25405   1.00916
  C  -8.43164  -2.76325   4.77266
  C  -2.17984  -2.33815   1.99986
  C  -8.27934  -2.36465   6.26766
  H  -4.30724  -3.70915   3.16356
  H  -7.87804  -2.00265   2.29996
  H  -7.36654  -3.61965   2.16496
  H  -6.31784  -0.72955   0.81826
  H  -3.63174  -0.57315   0.37796
  H  -6.44374  -3.62155   4.38276
  H  -6.43814  -1.92835   4.49736
  H  -8.94724  -1.92115   4.31086
  H  -9.01264  -3.68235   4.69646
  H  -1.78194  -2.67875   1.04396
  H  -1.77814  -1.36115   2.26886
  H  -1.81774  -3.06065   2.73126
  H  -7.77054  -3.11005   6.87886
  H  -9.26324  -2.46915   6.72496
  H  -7.92554  -1.34505   6.41986
  N  -5.75594  -2.35455   2.10286
  N  -3.64054  -2.23455   1.81216
  C   2.28666   0.32225  -5.48022
  C   2.57536  -1.79785  -3.99994
  C   3.42736   0.92575  -6.34212
  C   2.88596  -2.12035  -6.06769
  C   3.13406  -3.27635  -5.46518
  C   4.85676   0.58985  -5.78889
  C   2.61356  -4.10755  -3.13234
  C   5.94116   1.04215  -6.77503
  H   2.21306  -1.38835  -3.06854
  H   2.13506   0.88565  -4.55949
  H   1.46956   0.48345  -6.18343
  H   3.03456  -1.81635  -7.09331
  H   3.52896  -4.20095  -5.85973
  H   3.26836   0.54245  -7.35005
  H   3.28046   2.00115  -6.44211
  H   4.99246  -0.45725  -5.51793
  H   4.93446   1.13295  -4.84705
  H   3.55126  -4.19785  -2.58404
  H   1.72056  -3.95945  -2.52524
  H   2.48936  -5.11135  -3.53864
  H   6.92856   0.86435  -6.34906
  H   5.89466   2.12925  -6.83925
  H   5.86716   0.62535  -7.77950
  N   2.47126  -1.14555  -5.12992
  N   2.68506  -3.10415  -4.14634
  C  -3.68464   4.07805  -3.51324
  C  -3.69114   1.88645  -4.09674
  N  -4.01614   3.13555  -4.41534
  N  -3.32174   4.78545  -2.73034
  N  -3.56814   0.83535  -3.68334
