  52
# Step 308, RM=Cl[283] (1 atoms), C8H15N2[139] (25 atoms), C8H15N2[461] (25 atoms), Cl[473] (1 atoms)
  Cl   0.00000   0.00000   0.00000
  C  -3.36950  -1.08005  -0.88589
  C  -3.25590   1.33617   0.06244
  C  -3.59320  -2.36510  -0.00649
  C  -5.18310   0.58031  -0.47130
  C  -5.30300   1.88328  -0.18195
  C  -3.27950  -3.73978  -0.72171
  C  -3.75730   3.74028   0.73528
  C  -3.71900  -4.91824   0.06315
  H  -2.19300   1.29274   0.24856
  H  -3.60880  -1.21519  -1.94068
  H  -2.32350  -0.92158  -1.14847
  H  -5.91790  -0.04143  -0.96098
  H  -6.10400   2.60708  -0.15146
  H  -4.61020  -2.25746   0.37054
  H  -2.97350  -2.25768   0.88377
  H  -2.20890  -3.83750  -0.90189
  H  -3.96350  -3.59099  -1.55727
  H  -4.10560   4.53418   0.07450
  H  -2.68800   3.88468   0.88965
  H  -4.17330   3.83118   1.73865
  H  -3.63650  -5.82781  -0.53182
  H  -3.13920  -5.06716   0.97410
  H  -4.73940  -4.75571   0.41004
  N  -3.91740   0.21750  -0.31622
  N  -4.06330   2.34678   0.19202
  C   2.91462  -0.34994   3.65405
  C   4.79463  -1.53324   2.56875
  C   3.66550   0.82221   4.33945
  C   3.35679  -0.80874   1.12789
  C   4.35841  -1.39014   0.44663
  C   2.83528   2.09668   4.82515
  C   6.37150  -2.71944   1.10512
  C   1.60043   1.87038   5.74245
  H   5.35241  -1.81332   3.45015
  H   2.69530  -1.10027   4.41365
  H   2.04121   0.07298   3.15765
  H   2.47045  -0.25305   0.85957
  H   4.51855  -1.50752  -0.61496
  H   4.12383   0.41602   5.24115
  H   4.43520   1.24951   3.69675
  H   2.53243   2.65098   3.93675
  H   3.42969   2.77178   5.44065
  H   7.11683  -2.21438   0.49070
  H   6.95289  -2.93971   2.00045
  H   6.18189  -3.70602   0.68226
  H   0.93901   2.72948   5.85505
  H   0.87120   1.20331   5.28275
  H   1.77749   1.46193   6.73735
  N   3.65714  -0.86149   2.49775
  N   5.19327  -1.94094   1.40006
  Cl  -0.04050  -1.79475   5.47585
