  60
# Step 67, RM=C2N3[14] (5 atoms), C8H15N2[351] (25 atoms), C8H15N2[386] (25 atoms), C2N3[398] (5 atoms)
  C   0.49176   0.76149   0.67863
  C  -0.45724  -0.82991  -0.61577
  N   0.15626  -0.47641   0.49353
  N   0.96866   1.76939   0.97563
  N  -1.15454  -1.23431  -1.52307
  C   2.49242   6.39559  -2.02607
  C   2.07053   6.56139   0.42983
  C   2.76224   5.44489  -3.16047
  C   1.95890   4.51559  -0.25307
  C   1.79869   4.46759   1.02773
  C   4.12007   4.81699  -3.00217
  C   1.37543   6.24849   2.81763
  C   4.29458   3.77109  -4.03107
  H   2.14550   7.63869   0.42083
  H   1.60454   6.94319  -2.34207
  H   3.31428   7.10629  -1.93967
  H   1.89013   3.72329  -0.98367
  H   1.68098   3.58069   1.63263
  H   2.01352   4.65419  -3.20857
  H   2.69467   5.91009  -4.14387
  H   4.91707   5.55139  -3.11867
  H   4.19813   4.45239  -1.97797
  H   1.92532   7.11239   3.19093
  H   1.76969   5.49819   3.50313
  H   0.34096   6.54089   2.99783
  H   4.26130   4.21419  -5.02637
  H   5.22067   3.31589  -3.67997
  H   3.50750   3.01789  -3.99517
  N   2.19591   5.81299  -0.65127
  N   1.80784   5.78739   1.47853
  C   3.71676  -2.58041   0.15843
  C   2.87016  -1.06141   1.96153
  C   4.06166  -3.99751   0.41413
  C   5.07336  -1.50061   2.03193
  C   4.74246  -0.63371   2.98603
  C   4.35726  -4.86621  -0.83907
  C   2.64696   0.66439   3.63473
  C   4.56716  -6.34151  -0.55567
  H   1.81316  -1.24751   1.84113
  H   2.78346  -2.57931  -0.40467
  H   4.48146  -2.41341  -0.60017
  H   6.02016  -1.96981   1.80883
  H   5.39616  -0.18201   3.71743
  H   4.96816  -3.97961   1.01913
  H   3.41866  -4.56581   1.08623
  H   5.28396  -4.53281  -1.30627
  H   3.63526  -4.64301  -1.62447
  H   3.03226   1.68359   3.66313
  H   1.63966   0.89879   3.29063
  H   2.58426   0.39199   4.68823
  H   3.62566  -6.65391  -0.10387
  H   4.77756  -6.81421  -1.51507
  H   5.34646  -6.58231   0.16733
  N   3.87836  -1.68541   1.32663
  N   3.36996  -0.36561   2.91713
  C  -4.26799  -0.38208   0.30823
  C  -4.22342   0.06132  -1.92927
  N  -3.97096  -0.70388  -0.89637
  N  -4.33670  -0.19758   1.41703
  N  -4.63760   0.69452  -2.85237
