  60
# Step 14179, RM=C2N3[243] (5 atoms), C8H15N2[278] (25 atoms), C8H15N2[339] (25 atoms), C2N3[165] (5 atoms)
  C  -0.60930   0.83356   0.49476
  C   0.64290  -0.88544  -0.24624
  N  -0.03030  -0.27794   0.68986
  N  -1.15510   1.85506   0.17936
  N   1.15660  -1.53264  -1.08234
  C   7.54750  -4.17674  -0.29694
  C   6.31140  -2.12044  -0.74254
  C   7.64830  -5.54454  -1.07274
  C   5.13890  -3.89484  -1.14264
  C   4.30330  -2.85464  -1.32634
  C   8.04540  -5.46944  -2.53974
  C   4.44830  -0.34344  -0.96604
  C   8.36050  -6.85734  -3.11314
  H   7.17180  -1.51114  -0.50824
  H   8.47970  -3.61784  -0.37884
  H   7.36490  -4.27454   0.77316
  H   4.84310  -4.93134  -1.21094
  H   3.24000  -2.90504  -1.50874
  H   8.35600  -6.10844  -0.46504
  H   6.72820  -6.10774  -0.91724
  H   8.81400  -4.69794  -2.58454
  H   7.28500  -4.92004  -3.09474
  H   3.86490  -0.18234  -1.87254
  H   3.78510  -0.34684  -0.10094
  H   5.18990   0.45136  -0.88584
  H   8.64050  -6.88554  -4.16624
  H   7.52100  -7.55234  -3.13444
  H   9.25820  -7.27044  -2.65314
  N   6.39340  -3.41664  -0.80194
  N   5.04340  -1.68724  -1.03424
  C   4.65380  -2.47854   3.08886
  C   3.04200  -3.81284   1.87326
  C   4.82890  -1.11174   3.83856
  C   2.15070  -2.32004   3.14406
  C   1.14760  -2.84054   2.45426
  C   4.27190   0.18516   3.20866
  C   1.04900  -4.43634   0.43486
  C   4.69720   1.43766   3.80076
  H   3.69380  -4.46864   1.31516
  H   5.35090  -2.73704   2.29176
  H   5.02580  -3.15544   3.85796
  H   2.16020  -1.62364   3.96956
  H   0.10690  -2.55764   2.39576
  H   5.88760  -1.04454   4.08886
  H   4.41660  -1.38544   4.80976
  H   4.44230   0.17336   2.13216
  H   3.18400   0.24876   3.22896
  H   1.56330  -5.35824   0.16376
  H   0.01490  -4.70384   0.65206
  H   1.04300  -3.86284  -0.49204
  H   5.78310   1.53226   3.80746
  H   4.11170   2.19936   3.28586
  H   4.41770   1.49916   4.85246
  N   3.29190  -2.92404   2.79756
  N   1.78130  -3.71174   1.53446
  C  -1.23010  -0.35694   4.97666
  C   0.71580  -0.22444   5.86236
  N  -0.42170  -0.89274   5.82526
  N  -2.00790   0.02136   4.20066
  N   1.74920   0.28406   5.84966
