  60
# Step 76, RM=C2N3[403] (5 atoms), C8H15N2[13] (25 atoms), C8H15N2[400] (25 atoms), C2N3[79] (5 atoms)
  C  -0.03853   0.05421   1.12339
  C   0.02837   0.13621  -1.05581
  N   0.03317   0.78121   0.07709
  N  -0.04433  -0.64589   2.01619
  N   0.01987  -0.29859  -2.15121
  C  -2.93896   4.32091   6.44543
  C  -3.31136   2.25791   5.03619
  C  -1.77006   4.70571   7.34820
  C  -1.31276   3.14791   4.85432
  C  -1.36166   2.14891   3.98044
  C  -1.26396   3.58901   8.38148
  C  -3.07226   0.35971   3.40769
  C  -0.49896   4.18691   9.55574
  H  -4.25286   1.98071   5.48697
  H  -3.88986   4.10921   6.93450
  H  -3.22536   5.23031   5.91730
  H  -0.52366   3.88271   4.91538
  H  -0.61326   1.84371   3.26412
  H  -2.11306   5.59081   7.88398
  H  -0.89256   4.98371   6.76439
  H  -2.18746   3.19561   8.80639
  H  -0.68756   2.88671   7.77930
  H  -2.42516   0.28191   2.53403
  H  -4.12836   0.46411   3.15883
  H  -2.85436  -0.53089   3.99716
  H  -0.05336   3.39941  10.16346
  H  -1.18336   4.89541  10.02235
  H   0.32804   4.77081   9.15166
  N  -2.49766   3.24281   5.49584
  N  -2.65026   1.55051   4.09425
  C   0.74837  -3.56119   3.75919
  C   1.64807  -2.81819   1.68799
  C   0.79947  -5.02399   4.15169
  C   3.19817  -3.07199   3.28899
  C   3.79917  -2.67479   2.16439
  C   1.39627  -5.98739   3.06669
  C   3.03627  -1.66049   0.00509
  C   1.08117  -7.40329   3.56229
  H   0.78097  -2.68149   1.05889
  H  -0.17683  -3.28479   3.25349
  H   0.88487  -2.83059   4.55649
  H   3.57267  -3.29399   4.27739
  H   4.82867  -2.46009   1.91839
  H  -0.20793  -5.32719   4.43709
  H   1.40417  -5.09859   5.05559
  H   2.46827  -5.83909   2.93649
  H   0.88957  -5.74729   2.13189
  H   4.09877  -1.50869  -0.18511
  H   2.61187  -0.66699   0.14919
  H   2.57917  -2.13499  -0.86321
  H   0.02717  -7.44149   3.83729
  H   1.04477  -8.06599   2.69769
  H   1.76187  -7.84589   4.28959
  N   1.83247  -3.22129   2.91379
  N   2.79517  -2.46099   1.24869
  C  -3.77226   0.65271  -0.54621
  C  -5.27236  -0.46319   0.62129
  N  -4.46266  -0.41569  -0.37951
  N  -3.15876   1.62081  -0.72371
  N  -5.86566  -0.58849   1.62509
