  52
# Step 218, RM=Cl[372] (1 atoms), C8H15N2[34] (25 atoms), C8H15N2[49] (25 atoms), Cl[304] (1 atoms)
  Cl   0.00000   0.00000   0.00000
  C   1.33790  -3.90340  -2.03380
  C   0.14670  -3.24640   0.02780
  C   2.64330  -4.58880  -1.67750
  C  -0.69630  -4.95860  -0.96070
  C  -1.44360  -4.80160   0.14950
  C   3.74940  -4.35710  -2.74470
  C  -1.25450  -3.03280   2.03470
  C   5.03870  -4.79440  -2.12260
  H   0.79850  -2.41960   0.26870
  H   0.94410  -4.23070  -2.99600
  H   1.50630  -2.83830  -2.19240
  H  -0.73690  -5.73270  -1.71270
  H  -2.23150  -5.40470   0.57600
  H   2.54650  -5.67250  -1.61260
  H   3.03080  -4.20890  -0.73220
  H   3.98050  -3.31020  -2.94130
  H   3.73200  -4.85820  -3.71250
  H  -0.52100  -3.27790   2.80280
  H  -2.18880  -3.48700   2.36480
  H  -1.35670  -1.96960   1.81740
  H   5.41640  -4.04140  -1.43100
  H   5.76350  -4.94560  -2.92260
  H   4.98920  -5.69190  -1.50610
  N   0.29830  -3.99970  -1.02490
  N  -0.86460  -3.67570   0.76250
  C  -4.41530  -2.21050  -0.16970
  C  -3.33730  -0.04370  -0.41630
  C  -4.98500  -2.10420   1.35450
  C  -4.78620  -0.58710  -1.98780
  C  -4.16390   0.47690  -2.37430
  C  -6.34290  -1.38330   1.39570
  C  -2.50280   2.08520  -1.52080
  C  -7.17150  -1.76220   2.61260
  H  -2.62260  -0.18250   0.38140
  H  -5.06000  -2.87490  -0.74510
  H  -3.48700  -2.75370   0.00680
  H  -5.41270  -1.20910  -2.61000
  H  -4.14840   0.96630  -3.33690
  H  -5.11300  -3.05840   1.86550
  H  -4.31780  -1.58480   2.04240
  H  -6.44050  -0.29780   1.37860
  H  -6.97520  -1.81290   0.61870
  H  -2.03980   1.92710  -2.49490
  H  -3.04750   3.02150  -1.64210
  H  -1.74310   2.18400  -0.74550
  H  -8.05696  -1.13970   2.74140
  H  -6.61800  -1.71770   3.55060
  H  -7.40194  -2.81420   2.44450
  N  -4.26320  -0.96100  -0.75860
  N  -3.43550   0.98640  -1.32550
  Cl   2.50550  -3.12240   2.50870
