  60
# Step 453, RM=C2N3[112] (5 atoms), C8H15N2[335] (25 atoms), C8H15N2[470] (25 atoms), C2N3[494] (5 atoms)
  C  -0.42241   0.34242  -0.97182
  C   0.19759  -0.25758   1.04818
  N  -0.56241   0.44242   0.29818
  N  -0.20241   0.24242  -2.11182
  N   0.95759  -0.75758   1.74818
  C   0.80396  -3.45395   4.61818
  C   2.32396  -5.25395   3.99818
  C  -0.61604  -3.15395   4.10818
  C   1.78396  -3.95395   2.34818
  C   2.58396  -4.95395   1.86818
  C  -1.36604  -4.45395   3.68818
  C   3.75396  -6.95395   2.84818
  C  -2.81604  -4.15395   3.29818
  H   2.42396  -5.75395   4.98818
  H   1.32396  -2.45395   4.79818
  H   0.74396  -3.95395   5.58818
  H   1.28396  -3.15395   1.85818
  H   2.95396  -5.05395   0.85818
  H  -1.19604  -2.65395   4.88818
  H  -0.58604  -2.45395   3.25818
  H  -1.37604  -5.15395   4.48818
  H  -0.83604  -4.95395   2.85818
  H   4.81396  -6.75395   2.87818
  H   3.54396  -7.65395   3.67818
  H   3.58396  -7.55395   1.91818
  H  -3.34604  -5.05395   3.00818
  H  -2.87604  -3.45395   2.44818
  H  -3.35604  -3.65395   4.12818
  N   1.63396  -4.25395   3.69818
  N   2.89396  -5.75395   2.91818
  C   2.59759  -0.95395  -2.56182
  C   3.30759  -1.35395  -0.23182
  C   3.14759  -1.55395  -3.83182
  C   4.84759  -0.45395  -1.47182
  C   5.32759  -0.55395  -0.21182
  C   3.11759  -3.15395  -3.75182
  C   4.41759  -1.35395   2.00818
  C   3.63759  -3.75395  -5.05182
  H   2.36759  -1.75395   0.09818
  H   1.67759  -1.45395  -2.28182
  H   2.29759   0.04605  -2.74182
  H   5.30759  -0.15395  -2.38182
  H   6.29759  -0.25395   0.18818
  H   2.52759  -1.25395  -4.67182
  H   4.13759  -1.25395  -4.06182
  H   2.09759  -3.45395  -3.56182
  H   3.72759  -3.45395  -2.91182
  H   5.02759  -2.25395   2.25818
  H   4.80759  -0.45395   2.52818
  H   3.42759  -1.45395   2.44818
  H   3.12759  -3.35395  -5.92182
  H   4.69759  -3.55395  -5.15182
  H   3.49759  -4.85395  -5.02182
  N   3.54759  -0.95395  -1.43182
  N   4.32759  -1.15395   0.55818
  C  -0.09604  -3.25758  -0.49182
  C  -2.22604  -2.85758  -0.83182
  N  -1.27604  -3.05758   0.01818
  N   0.99396  -3.45758  -0.80182
  N  -3.14604  -2.65758  -1.50182
