  60
# Step 12961, RM=C2N3[487] (5 atoms), C8H15N2[101] (25 atoms), C8H15N2[367] (25 atoms), C2N3[177] (5 atoms)
  C  -0.48901  -0.91851   0.32907
  C   0.54689   0.75459  -0.46703
  N   0.39249  -0.49451  -0.53303
  N  -1.14881  -1.25681   1.14847
  N   0.70669   1.89189  -0.49713
  C   4.01229   1.38912  -2.13944
  C   3.57709   3.61835  -1.15763
  C   4.87959   0.16204  -1.59276
  C   5.65449   3.26807  -1.66595
  C   5.54169   4.55006  -1.30483
  C   4.06109  -1.22286  -1.53192
  C   3.68929   5.91027  -0.29363
  C   4.76299  -2.45328  -0.79983
  H   2.51289   3.46494  -1.05553
  H   2.97649   1.17371  -1.87723
  H   3.98079   1.32673  -3.22719
  H   6.52969   2.66355  -1.85287
  H   6.29339   5.30341  -1.12113
  H   5.82299   0.13155  -2.13799
  H   5.22459   0.41139  -0.58933
  H   3.59029  -1.45834  -2.48639
  H   3.10959  -1.13409  -1.00763
  H   4.29789   6.37593   0.48157
  H   2.66259   5.94332   0.07087
  H   3.60209   6.71532  -1.02323
  H   5.21019  -2.26884   0.17697
  H   5.67759  -2.77649  -1.29703
  H   4.20599  -3.39015  -0.81043
  N   4.37869   2.70637  -1.64598
  N   4.20789   4.72382  -0.92113
  C  -5.65341   3.77200   1.55987
  C  -3.25911   3.90669   1.86247
  C  -6.23031   3.94527   2.96407
  C  -4.02431   1.92013   1.37567
  C  -2.70491   1.80983   1.61437
  C  -7.56771   4.65085   2.84117
  C  -0.86541   3.43282   2.12677
  C  -8.69251   3.71682   2.39827
  H  -3.19511   4.98202   1.93957
  H  -6.32341   3.14182   0.97507
  H  -5.61741   4.73761   1.05547
  H  -4.80541   1.17976   1.28567
  H  -2.12461   0.91950   1.80667
  H  -5.50641   4.51083   3.55087
  H  -6.47291   3.00558   3.46027
  H  -7.79641   5.02579   3.83867
  H  -7.62541   5.51073   2.17377
  H  -0.87871   4.40429   2.62087
  H  -0.28181   2.74434   2.73797
  H  -0.23201   3.46469   1.24027
  H  -8.88811   3.77822   1.32767
  H  -9.57101   4.13432   2.89027
  H  -8.73801   2.72795   2.85447
  N  -4.33231   3.25679   1.59747
  N  -2.27401   3.04903   1.92427
  C  -2.22551   1.19983   5.07207
  C  -4.08671   2.27060   5.64117
  N  -2.86871   2.29109   5.29377
  N  -1.56671   0.28244   4.71047
  N  -5.22331   2.39446   5.92377
