  60
# Step 178, RM=C2N3[335] (5 atoms), C8H15N2[29] (25 atoms), C8H15N2[193] (25 atoms), C2N3[296] (5 atoms)
  C   1.03039  -0.45176  -0.05901
  C  -0.99561   0.48124   0.13599
  N   0.20039   0.32324   0.60499
  N   1.89539  -1.00076  -0.59701
  N  -2.12561   0.65224  -0.07401
  C  -3.71061  -2.94676  -0.16501
  C  -5.79261  -2.81976   1.25999
  C  -2.29961  -3.24276   0.40099
  C  -4.50861  -1.08976   1.35899
  C  -5.65161  -0.79476   1.97999
  C  -2.33461  -4.22476   1.60199
  C  -7.81961  -1.92276   2.42199
  C  -0.95161  -4.60376   2.15899
  H  -6.23461  -3.76676   0.98799
  H  -3.68261  -2.17676  -0.93601
  H  -4.18861  -3.86876  -0.49601
  H  -3.60561  -0.53176   1.16399
  H  -5.94661   0.11524   2.47999
  H  -1.74161  -2.34176   0.65599
  H  -1.71161  -3.72476  -0.38001
  H  -2.76761  -5.19676   1.36699
  H  -2.96861  -3.76676   2.36199
  H  -7.99661  -2.95976   2.70499
  H  -7.86661  -1.21676   3.25099
  H  -8.55661  -1.56976   1.69999
  H  -0.98561  -5.24976   3.03599
  H  -0.31061  -5.05376   1.40199
  H  -0.56361  -3.62476   2.44199
  N  -4.65961  -2.33876   0.79599
  N  -6.48561  -1.86476   1.86299
  C  -4.79661   0.04887  -3.85401
  C  -4.11361   1.73487  -2.10701
  C  -4.38061  -0.15013  -5.30801
  C  -5.04261   2.55987  -3.89901
  C  -4.79561   3.57187  -3.05701
  C  -2.91861   0.25487  -5.62501
  C  -3.83561   3.78987  -0.73401
  C  -2.47961  -0.32513  -6.99701
  H  -3.75761   1.00887  -1.39101
  H  -5.83261  -0.24413  -3.68001
  H  -4.27961  -0.66513  -3.21201
  H  -5.50561   2.49387  -4.87201
  H  -5.03861   4.62387  -3.10101
  H  -5.05661   0.38487  -5.97501
  H  -4.53861  -1.20113  -5.55201
  H  -2.77661   1.33487  -5.58301
  H  -2.27661  -0.13713  -4.83601
  H  -3.12561   4.57387  -0.99901
  H  -3.35161   3.08387  -0.05901
  H  -4.70861   4.30087  -0.33001
  H  -2.63061  -1.40113  -7.07901
  H  -3.08661   0.16487  -7.75901
  H  -1.44261  -0.08013  -7.22701
  N  -4.63761   1.41487  -3.27701
  N  -4.24161   3.04087  -1.90601
  C   1.94339   4.40124   1.96299
  C  -0.22161   4.11324   1.99099
  N   0.87439   4.18124   2.66299
  N   2.97639   4.50924   1.43099
  N  -1.27061   4.09624   1.51199
