  52
# Step 747, RM=Cl[178] (1 atoms), C8H15N2[94] (25 atoms), C8H15N2[266] (25 atoms), Cl[323] (1 atoms)
  Cl   0.00000   0.00000   0.00000
  C  -1.01099  -2.52851  -2.82660
  C  -2.39009  -0.40644  -2.71350
  C   0.07852  -3.00295  -3.70280
  C  -2.46983  -1.53298  -4.58080
  C  -3.23629  -0.46963  -4.75210
  C   1.02274  -3.80066  -2.75730
  C  -3.90298   1.52765  -3.22710
  C   2.13893  -4.56437  -3.56340
  H  -1.99911  -0.14102  -1.74240
  H  -0.66290  -2.11821  -1.87870
  H  -1.64434  -3.35266  -2.49840
  H  -2.33756  -2.25070  -5.37690
  H  -3.94934  -0.21814  -5.52330
  H   0.47100  -2.10790  -4.18540
  H  -0.31976  -3.47612  -4.60030
  H   1.57352  -3.13214  -2.09560
  H   0.46445  -4.57257  -2.22760
  H  -3.23711   2.02965  -2.52510
  H  -4.18237   2.10355  -4.10940
  H  -4.83565   1.34885  -2.69210
  H   2.71722  -5.23789  -2.93090
  H   2.79128  -3.82571  -4.02910
  H   1.65613  -5.20719  -4.29950
  N  -1.85680  -1.45922  -3.35520
  N  -3.20552   0.23736  -3.54940
  C   6.14013  -1.24714   3.63590
  C   5.21563  -1.14250   1.22890
  C   5.88043  -2.15353   4.88600
  C   3.72073  -0.99079   2.75930
  C   3.10197  -0.96834   1.55950
  C   5.36763  -3.48841   4.49470
  C   3.86252  -1.25132  -0.90180
  C   4.84163  -4.16927   5.73590
  H   6.09683  -1.30182   0.62510
  H   7.13273  -1.41523   3.21800
  H   6.32783  -0.27647   4.09490
  H   3.31010  -0.89961   3.75400
  H   2.05062  -0.92701   1.31590
  H   6.78613  -2.10917   5.49090
  H   5.22123  -1.71102   5.63280
  H   6.17543  -4.15548   4.19380
  H   4.55075  -3.52801   3.77420
  H   3.94164  -2.30585  -1.16600
  H   4.71411  -0.80127  -1.41200
  H   2.92358  -0.81172  -1.23830
  H   4.70370  -5.24110   5.59350
  H   3.87652  -3.74621   6.01460
  H   5.42483  -3.94940   6.63010
  N   5.07323  -0.99265   2.55440
  N   4.05043  -1.07722   0.56850
  Cl   1.46510   4.75925   2.39330
