  52
# Step 314, RM=Cl[84] (1 atoms), C8H15N2[62] (25 atoms), C8H15N2[444] (25 atoms), Cl[492] (1 atoms)
  Cl   0.00000   0.00000   0.00000
  C   1.73720  -5.09045  -5.16340
  C   0.80920  -4.04516  -3.15820
  C   1.71120  -6.61580  -5.12850
  C  -0.64910  -4.21245  -4.79860
  C  -1.28690  -3.72766  -3.74750
  C   2.48990  -7.21876  -3.91750
  C  -0.54160  -2.95846  -1.42010
  C   2.66950  -8.77396  -3.94990
  H   1.71630  -4.09070  -2.57380
  H   2.71050  -4.77872  -4.78440
  H   1.67230  -4.76328  -6.20110
  H  -0.97900  -4.45527  -5.79790
  H  -2.31370  -3.40663  -3.65270
  H   0.67470  -6.94958  -5.17810
  H   2.27050  -6.89225  -6.02230
  H   3.41500  -6.68796  -3.69270
  H   2.00740  -6.77216  -3.04810
  H   0.20290  -3.29380  -0.69800
  H  -0.70890  -1.88152  -1.40280
  H  -1.48650  -3.40361  -1.10850
  H   3.20030  -9.14642  -3.07380
  H   3.12680  -9.04134  -4.90260
  H   1.66160  -9.18492  -3.89110
  N   0.69660  -4.43827  -4.40310
  N  -0.34180  -3.55347  -2.76920
  C   3.13010   0.43010  -1.46850
  C   4.41670   2.18210  -0.34240
  C   2.21790   0.51230  -2.67240
  C   2.34470   2.56760  -0.40640
  C   2.92780   3.60660   0.27300
  C   2.41380  -0.62350  -3.71240
  C   5.35170   4.18830   0.67660
  C   3.68720  -0.43490  -4.55560
  H   5.39810   1.74620  -0.45820
  H   2.68910  -0.31460  -0.80590
  H   4.03170  -0.04120  -1.85950
  H   1.29730   2.41530  -0.62120
  H   2.47560   4.51080   0.65300
  H   2.30060   1.52280  -3.07270
  H   1.16990   0.52670  -2.37300
  H   1.45300  -0.65627  -4.22610
  H   2.44180  -1.57017  -3.17290
  H   5.52360   3.94200   1.72440
  H   6.22370   4.07360   0.03280
  H   5.00470   5.22150   0.69540
  H   3.65890  -1.19111  -5.34010
  H   4.61530  -0.73711  -4.07060
  H   3.83330   0.54320  -5.01390
  N   3.31740   1.69200  -0.80580
  N   4.27070   3.34130   0.18550
  Cl  -4.08960  -3.33011  -0.81220
