  52
# Step 419, RM=Cl[480] (1 atoms), C8H15N2[191] (25 atoms), C8H15N2[316] (25 atoms), Cl[415] (1 atoms)
  Cl   0.00000   0.00000   0.00000
  C  -2.14890  -0.82400   2.36749
  C  -3.88832   1.00960   2.14491
  C  -3.18028  -1.72910   3.07050
  C  -1.82116   1.65250   1.99371
  C  -2.57771   2.74480   2.02146
  C  -3.43864  -1.24580   4.51406
  C  -5.08206   3.14500   2.04576
  C  -4.72459  -1.74590   5.15689
  H  -4.74020   0.34780   2.09260
  H  -1.83564  -1.26990   1.42348
  H  -1.26027  -0.85280   2.99805
  H  -0.77676   1.44600   2.17534
  H  -2.24946   3.76870   2.12325
  H  -2.83538  -2.76260   3.10267
  H  -4.04631  -1.78650   2.41111
  H  -3.48960  -0.15830   4.56671
  H  -2.54487  -1.51500   5.07693
  H  -5.61113   3.16840   1.09306
  H  -5.82282   2.74280   2.73685
  H  -4.89103   4.19010   2.28948
  H  -5.63135  -1.46010   4.62383
  H  -4.60722  -2.82700   5.23222
  H  -4.79115  -1.37100   6.17821
  N  -2.67163   0.56430   2.15458
  N  -3.87386   2.27310   1.95522
  C   2.12818  -4.09260   0.46253
  C   1.90421  -1.95830   1.68748
  C   3.14608  -5.20620   0.15329
  C   3.99453  -2.46290   1.29119
  C   3.95507  -1.33680   1.97379
  C   2.56861  -6.19270  -0.88048
  C   2.22001   0.13320   2.86373
  C   3.46329  -7.37238  -1.13449
  H   0.82697  -1.93190   1.61497
  H   1.41036  -4.64180   1.07183
  H   1.55371  -3.74790  -0.39727
  H   4.84012  -2.89680   0.77825
  H   4.76345  -0.68080   2.26122
  H   3.31534  -5.77400   1.06823
  H   4.09087  -4.76670  -0.16654
  H   1.60740  -6.50740  -0.47411
  H   2.52224  -5.71220  -1.85778
  H   2.38752   0.08500   3.93970
  H   2.80032   1.00980   2.57588
  H   1.20530   0.44710   2.61892
  H   3.30140  -8.01656  -0.27024
  H   3.30006  -7.94357  -2.04838
  H   4.44967  -6.92530  -1.25824
  N   2.60998  -2.83560   1.12537
  N   2.65632  -1.05670   2.26111
  Cl  -0.16556  -4.12060   3.17615
