  52
# Step 928, RM=Cl[490] (1 atoms), C8H15N2[199] (25 atoms), C8H15N2[417] (25 atoms), Cl[147] (1 atoms)
  Cl   0.00000   0.00000   0.00000
  C   0.30190  -1.18010   3.01510
  C   2.21540  -1.92270   4.42070
  C  -0.70490  -2.27520   3.48600
  C   1.65250   0.19080   4.64470
  C   2.75710   0.00970   5.36070
  C  -1.20650  -2.15890   4.94380
  C   4.27300  -2.08780   5.83280
  C  -2.29940  -1.19130   4.89120
  H   2.26050  -2.91800   4.00390
  H   0.76900  -1.51770   2.08990
  H  -0.24380  -0.24000   2.93500
  H   1.13690   1.13020   4.51090
  H   3.34730   0.74750   5.88380
  H  -0.25980  -3.25400   3.30710
  H  -1.56830  -2.26490   2.82080
  H  -0.33230  -1.81910   5.49920
  H  -1.50330  -3.13900   5.31730
  H   5.13750  -1.44130   5.98350
  H   4.07100  -2.55390   6.79720
  H   4.58550  -2.93590   5.22370
  H  -1.99080  -0.22180   4.50000
  H  -2.57010  -0.82060   5.87980
  H  -3.22910  -1.44330   4.38110
  N   1.35710  -0.97730   4.00490
  N   3.13210  -1.35040   5.22780
  C   1.95140   3.03790  -1.17550
  C  -0.47210   3.76020  -0.98560
  C   3.11380   3.74640  -0.46290
  C   0.84220   5.03770  -2.21050
  C  -0.34960   5.58310  -2.21490
  C   2.67060   4.38920   0.93430
  C  -2.70700   4.79290  -1.39770
  C   2.03840   5.75000   0.89940
  H  -0.74640   3.12840  -0.15370
  H   2.38500   2.55350  -2.05040
  H   1.59630   2.21170  -0.55950
  H   1.77410   5.36770  -2.64510
  H  -0.75490   6.41800  -2.76720
  H   3.60530   4.50420  -1.07300
  H   3.83310   2.94500  -0.29420
  H   2.11720   3.64970   1.51300
  H   3.55670   4.55620   1.54680
  H  -3.13130   4.96300  -2.38720
  H  -3.04620   3.88460  -0.89970
  H  -2.99650   5.59020  -0.71310
  H   2.18790   6.21010   1.87620
  H   2.35280   6.41050   0.09140
  H   0.97550   5.66710   0.67260
  N   0.78470   3.89190  -1.42570
  N  -1.21260   4.70560  -1.51990
  Cl  -1.08450   2.51970   4.89410
