  60
# Step 3770, RM=C2N3[472] (5 atoms), C8H15N2[190] (25 atoms), C8H15N2[325] (25 atoms), C2N3[164] (5 atoms)
  C   0.26833  -0.91953   0.59838
  C  -0.09197   0.99987  -0.42352
  N   0.63843   0.30057   0.37688
  N  -0.12837  -2.05443   0.66288
  N  -0.66127   1.68497  -1.18972
  C   2.15343   3.80217  -1.71672
  C   0.82233   3.14867  -3.74632
  C   1.53883   5.25367  -1.70022
  C   2.99783   2.93927  -3.93152
  C   2.48333   2.74877  -5.17962
  C   0.35043   5.36857  -0.67932
  C   0.07353   2.48037  -6.06422
  C  -0.11587   6.83167  -0.64892
  H  -0.15837   3.18047  -3.29502
  H   1.75233   3.19777  -0.90302
  H   3.20743   3.88577  -1.45172
  H   4.03523   2.93957  -3.63102
  H   2.80823   2.62237  -6.20182
  H   1.06673   5.62147  -2.61122
  H   2.39843   5.87977  -1.46112
  H   0.77493   5.11937   0.29318
  H  -0.48107   4.70187  -0.90802
  H   0.52633   2.24817  -7.02812
  H  -0.46667   3.39407  -6.31212
  H  -0.60927   1.70197  -5.72372
  H  -0.97637   7.01487  -0.00542
  H   0.69923   7.41297  -0.21782
  H  -0.28697   7.27227  -1.63112
  N   1.93523   3.28277  -3.08112
  N   1.06403   2.81097  -5.00942
  C  -5.23967  -6.16588   2.88718
  C  -3.35017  -5.04753   4.00228
  C  -6.25557  -5.57271   1.88418
  C  -3.08007  -5.34618   1.83178
  C  -2.03417  -4.63653   2.29568
  C  -6.18987  -4.09493   1.81338
  C  -1.34457  -3.64653   4.46998
  C  -7.29337  -3.41213   1.10638
  H  -3.81187  -5.05493   4.97858
  H  -5.15637  -7.23847   2.71198
  H  -5.67577  -6.03947   3.87818
  H  -3.21207  -5.51697   0.77358
  H  -1.22197  -4.15233   1.77378
  H  -5.97267  -5.94844   0.90088
  H  -7.24757  -5.92417   2.16788
  H  -6.13037  -3.68703   2.82238
  H  -5.24757  -3.86233   1.31738
  H  -1.38167  -2.63233   4.07238
  H  -1.66737  -3.57753   5.50878
  H  -0.33467  -4.04963   4.39368
  H  -7.14067  -2.33553   1.03158
  H  -8.22897  -3.60923   1.62968
  H  -7.40197  -3.81613   0.09978
  N  -3.90647  -5.50921   2.89948
  N  -2.26737  -4.38223   3.62248
  C  -0.28147  -6.96849  -0.11692
  C   1.21113  -8.49584  -0.23582
  N   0.52873  -7.73769   0.55148
  N  -0.95097  -6.09245  -0.58852
  N   1.96773  -9.10621  -0.88502
