  52
# Step 863, RM=Cl[415] (1 atoms), C8H15N2[70] (25 atoms), C8H15N2[216] (25 atoms), Cl[480] (1 atoms)
  Cl   0.00000   0.00000   0.00000
  C  -0.67445  -1.48730   4.87011
  C   0.69691  -1.70400   2.74823
  C  -0.69961   0.01220   4.92081
  C   1.52519  -2.68300   4.48491
  C   2.31545  -3.00670   3.46527
  C  -2.07002   0.59260   5.33011
  C   2.29584  -2.56390   0.93517
  C  -2.16556   2.11700   5.61641
  H   0.01864  -1.12960   2.13465
  H  -1.63291  -1.84310   4.49221
  H  -0.60310  -1.98490   5.83731
  H   1.54944  -3.05770   5.49761
  H   3.12509  -3.71642   3.38070
  H   0.15151   0.42250   5.46431
  H  -0.60153   0.34540   3.88761
  H  -2.35867   0.03580   6.22161
  H  -2.82185   0.37660   4.57101
  H   1.55320  -2.37070   0.16107
  H   3.04080  -1.77350   0.84353
  H   2.65247  -3.58498   0.79971
  H  -1.78101   2.27690   6.62371
  H  -3.20085   2.45790   5.61661
  H  -1.58294   2.63530   4.85481
  N   0.48969  -1.86820   4.03801
  N   1.75129  -2.44430   2.34665
  C  -2.08803  -3.71540  -0.93303
  C  -2.17271  -2.38780  -3.00370
  C  -2.75439  -2.54890  -0.15109
  C  -1.07471  -4.25893  -3.09693
  C  -0.93769  -3.63997  -4.30062
  C  -3.06746  -3.08490   1.28773
  C  -2.11626  -1.65480  -5.38879
  C  -3.57527  -1.96140   2.14357
  H  -2.80448  -1.62250  -2.57764
  H  -2.76567  -4.56794  -0.88742
  H  -1.17686  -4.15417  -0.52639
  H  -0.71015  -5.20709  -2.73018
  H  -0.44833  -3.92903  -5.21898
  H  -3.65389  -2.24780  -0.68810
  H  -1.97093  -1.79510  -0.07291
  H  -3.80951  -3.88290   1.26315
  H  -2.19893  -3.65524   1.61699
  H  -1.33493  -1.50390  -6.13369
  H  -2.91279  -2.21750  -5.87559
  H  -2.46795  -0.69630  -5.00692
  H  -2.90116  -1.11260   2.25836
  H  -4.40526  -1.43250   1.67501
  H  -3.75698  -2.28750   3.16765
  N  -1.69818  -3.33814  -2.32595
  N  -1.75728  -2.53470  -4.23832
  Cl   0.65256   4.52590  -2.14924
