  60
# Step 6421, RM=C2N3[492] (5 atoms), C8H15N2[165] (25 atoms), C8H15N2[493] (25 atoms), C2N3[299] (5 atoms)
  C   0.84128   0.26358  -0.73830
  C  -0.75062  -0.42295   0.73980
  N   0.46818  -0.23987   0.43700
  N   1.27418   0.81925  -1.61990
  N  -1.82012  -0.44272   1.18160
  C  -2.56354  -2.66991   7.71630
  C  -1.25762  -1.26751   6.07870
  C  -1.39362  -3.44211   8.46270
  C  -2.96019  -2.30681   5.22990
  C  -2.40822  -1.67551   4.27100
  C  -0.41312  -2.52281   9.21390
  C  -0.68022   0.22559   4.16170
  C  -1.05162  -1.46131  10.15250
  H  -0.56322  -0.87201   6.80520
  H  -3.41341  -3.35071   7.66880
  H  -3.00470  -1.94111   8.39620
  H  -3.77633  -3.01361   5.20200
  H  -2.67613  -1.71491   3.22550
  H  -1.73282  -4.11931   9.24660
  H  -0.84132  -4.12661   7.81890
  H   0.33648  -3.17931   9.65580
  H   0.23618  -1.87211   8.62820
  H  -0.02022   0.79409   4.81710
  H  -1.27732   0.94849   3.60590
  H  -0.14852  -0.29061   3.36240
  H  -0.43092  -1.16541  10.99830
  H  -1.40102  -0.61531   9.56060
  H  -1.96622  -1.85611  10.59470
  N  -2.23293  -1.99651   6.40930
  N  -1.40752  -0.84091   4.83580
  C  -5.76033  -4.42173   0.20850
  C  -5.85524  -2.75601   2.00200
  C  -7.09627  -4.49017  -0.56810
  C  -4.84419  -2.05390   0.22090
  C  -4.76897  -1.06101   1.12920
  C  -7.63906  -3.15252  -1.13790
  C  -5.76855  -0.81348   3.46210
  C  -8.96318  -3.21963  -1.77710
  H  -6.43099  -3.34641   2.69940
  H  -5.57279  -5.27628   0.85870
  H  -4.97344  -4.53308  -0.53740
  H  -4.48612  -1.99882  -0.79650
  H  -4.28909  -0.09354   1.11840
  H  -7.03791  -5.20596  -1.38800
  H  -7.85030  -4.90625   0.10010
  H  -6.96279  -2.71387  -1.87160
  H  -7.78320  -2.44080  -0.32500
  H  -5.93722   0.24888   3.28580
  H  -6.75166  -1.00217   3.89330
  H  -4.99450  -0.95236   4.21680
  H  -9.77908  -3.33429  -1.06350
  H  -9.22142  -2.29797  -2.29860
  H  -9.05415  -4.08390  -2.43500
  N  -5.50423  -3.11842   0.81300
  N  -5.38862  -1.59285   2.25570
  C  -4.02380   2.41801   3.14020
  C  -3.27676   3.65953   1.48570
  N  -4.07666   2.64774   1.88500
  N  -3.92728   2.13454   4.30260
  N  -2.73126   4.53262   0.94420
