  52
# Step 651, RM=Cl[3] (1 atoms), C8H15N2[108] (25 atoms), C8H15N2[119] (25 atoms), Cl[407] (1 atoms)
  Cl   0.00000   0.00000   0.00000
  C  -3.87810  -0.96089   3.57630
  C  -2.51970  -1.92050   1.67690
  C  -4.53660  -1.97085   4.53760
  C  -4.64360  -2.32555   1.52470
  C  -4.04060  -2.83103   0.47440
  C  -3.79690  -3.22683   4.88820
  C  -1.67600  -3.27669  -0.25140
  C  -4.55760  -4.24172   5.73420
  H  -1.51420  -1.61402   1.92490
  H  -2.88610  -0.70256   3.94700
  H  -4.51360  -0.08409   3.45200
  H  -5.67600  -2.21199   1.82100
  H  -4.46420  -3.25901  -0.42210
  H  -5.51430  -2.22872   4.13030
  H  -4.73630  -1.46252   5.48090
  H  -2.87540  -2.92116   5.38370
  H  -3.59550  -3.78965   3.97670
  H  -1.99560  -3.37467  -1.28890
  H  -1.35680  -4.22334   0.18460
  H  -0.81310  -2.61644  -0.33900
  H  -3.82480  -4.94215   6.13480
  H  -5.40000  -4.73863   5.25300
  H  -4.92170  -3.69772   6.60570
  N  -3.63400  -1.72912   2.31910
  N  -2.69550  -2.63586   0.60170
  C   6.45510   1.96543   1.80598
  C   4.27640   1.22057   2.77469
  C   7.46680   1.36303   2.84351
  C   4.52300   0.88386   0.63339
  C   3.27290   0.43343   0.94561
  C   8.85930   2.01926   2.79853
  C   1.86680   0.66812   3.03444
  C   9.53580   2.08595   1.44413
  H   4.47060   1.38652   3.82404
  H   6.80790   1.86902   0.77918
  H   6.33670   3.04388   1.91099
  H   5.06810   0.83039  -0.29742
  H   2.48340  -0.09212   0.42892
  H   7.56390   0.28272   2.73591
  H   7.04180   1.60252   3.81825
  H   9.45850   1.36468   3.43151
  H   8.80110   3.01618   3.23532
  H   1.02770   0.67075   2.33872
  H   1.77870  -0.31735   3.49181
  H   1.85080   1.55389   3.66948
  H   8.94610   2.75986   0.82264
  H   9.36590   1.13938   0.93106
  H  10.54930   2.48581   1.41358
  N   5.09570   1.37401   1.73821
  N   3.12250   0.77264   2.26872
  Cl  -0.56550  -0.94143   5.12432
