  60
# Step 410, RM=C2N3[157] (5 atoms), C8H15N2[5] (25 atoms), C8H15N2[68] (25 atoms), C2N3[68] (5 atoms)
  C  -0.05000   0.31819   1.06667
  C   0.12000  -0.38181  -1.04333
  N   0.23000  -0.68181   0.22667
  N  -0.24000   1.01819   1.94667
  N  -0.05000  -0.28181  -2.19333
  C  -2.06000   0.22182  -8.76333
  C  -0.10000  -0.67818  -7.52333
  C  -3.36000   1.02182  -8.56333
  C  -1.43000   0.62182  -6.32333
  C  -0.41000   0.22182  -5.54333
  C  -3.10000   2.52182  -8.43333
  C   1.61000  -1.27818  -5.87333
  C  -2.68000   3.22182  -9.76333
  H   0.32000  -1.17818  -8.36333
  H  -2.33000  -0.77818  -9.10333
  H  -1.49000   0.62182  -9.59333
  H  -2.30000   1.22182  -6.08333
  H  -0.22000   0.32182  -4.49333
  H  -3.92000   0.72182  -7.69333
  H  -4.03000   0.92182  -9.41333
  H  -2.34000   2.82182  -7.68333
  H  -4.02000   3.02182  -8.12333
  H   1.67000  -2.27818  -6.27333
  H   1.66000  -1.37818  -4.78333
  H   2.54000  -0.77818  -6.18333
  H  -1.73000   2.82182  -10.12333
  H  -3.43000   3.02182  -10.53333
  H  -2.52000   4.32182  -9.65333
  N  -1.20000   0.12182  -7.58333
  N   0.42000  -0.57818  -6.33333
  C   1.37000  -4.38181  -3.41333
  C  -0.65000  -2.98181  -3.55333
  C   2.01000  -5.68181  -4.03333
  C  -0.40000  -4.38181  -5.26333
  C  -1.51000  -3.58181  -5.47333
  C   1.19000  -6.98181  -3.86333
  C  -2.73000  -1.78181  -4.22333
  C   1.89000  -8.18181  -4.42333
  H  -0.49000  -2.48181  -2.63333
  H   1.16000  -4.58181  -2.36333
  H   2.11000  -3.58181  -3.41333
  H  -0.00000  -5.18181  -5.86333
  H  -2.22000  -3.68181  -6.27333
  H   2.23000  -5.48181  -5.08333
  H   2.98000  -5.78181  -3.55333
  H   0.22000  -6.88181  -4.34333
  H   0.97000  -7.08181  -2.80333
  H  -3.59000  -2.18181  -3.71333
  H  -3.06000  -1.38181  -5.17333
  H  -2.42000  -0.98181  -3.62333
  H   2.87000  -8.28181  -3.98333
  H   2.04000  -8.08181  -5.50333
  H   1.32000  -9.08181  -4.22333
  N   0.15000  -3.88181  -4.05333
  N  -1.64000  -2.78181  -4.39333
  C   1.84000   2.41819  -0.37333
  C   0.41000   4.01819   0.16667
  N   0.86000   3.21819  -0.73333
  N   2.72000   1.81819   0.03667
  N   0.09000   4.71819   0.99667
