  76
# Step 27, RM=CF3O3S[233] (8 atoms), CF3O3S[17] (8 atoms), C9H20N[415] (30 atoms), C9H20N[443] (30 atoms)
  C   0.48298   0.52444  -0.57958
  F   0.29388   0.01684  -1.79278
  F   1.76318   0.56424  -0.32648
  F  -0.00682   1.74354  -0.56448
  O   0.11658  -1.80656   0.40242
  O  -1.81992  -0.39116   0.08312
  O  -0.16832   0.06634   1.90362
  S  -0.46172  -0.51026   0.61502
  C   4.49638   3.36544   0.72602
  F   3.67608   2.56214   1.36812
  F   4.39148   4.56864   1.28922
  F   4.11248   3.36344  -0.49968
  O   6.55988   2.79584   2.29602
  O   6.30288   1.42574   0.32602
  O   7.08098   3.63404   0.04452
  S   6.32678   2.71924   0.86342
  C   3.44868  -1.34436   1.30452
  C   4.62528  -2.55096   2.93412
  C   4.51708  -3.51136   0.67792
  C   3.41828  -0.54536   2.64492
  C   4.27708  -1.23466   3.61902
  C   4.20278  -3.34506  -0.80568
  C   4.16528  -4.79226  -1.38418
  C   5.97978  -1.62946   1.22222
  C   3.52248  -4.81756  -2.79798
  H   2.50498  -1.85806   1.12092
  H   3.41068  -0.71676   0.41412
  H   3.83298  -3.24806   3.20672
  H   5.53558  -3.02036   3.30712
  H   5.34998  -4.17966   0.89662
  H   3.64458  -4.06556   1.02372
  H   3.91508   0.38364   2.36532
  H   5.14488  -0.62716   3.87612
  H   3.76768  -1.38966   4.57002
  H   2.42098  -0.32576   3.02592
  H   5.01318  -2.83156  -1.32298
  H   3.25328  -2.83446  -0.96628
  H   5.19728  -5.14286  -1.37118
  H   3.51928  -5.50816  -0.87598
  H   6.78708  -2.28866   1.54142
  H   6.17748  -0.64506   1.64632
  H   6.16488  -1.43946   0.16502
  H   4.28188  -4.57106  -3.53998
  H   2.61898  -4.20986  -2.74688
  H   3.06608  -5.77396  -3.05338
  N   4.61868  -2.25726   1.48012
  C  -0.71802   3.71754  -5.33318
  C   0.81878   2.11324  -4.68808
  C  -0.60782   1.56514  -6.59558
  C  -0.07552   4.25834  -4.03778
  C   0.81248   3.10024  -3.53798
  C   0.11508   2.21624  -7.81438
  C   0.38278   1.17424  -8.91698
  C  -1.49882   1.60924  -4.38978
  C   1.45278   1.77504  -9.94910
  H  -1.71922   4.07074  -5.57998
  H  -0.03832   4.17464  -6.05228
  H   1.64258   2.48104  -5.29978
  H   1.18048   1.12414  -4.40698
  H  -0.43092   0.49504  -6.48788
  H  -1.67152   1.49864  -6.82398
  H   0.39468   2.74824  -2.59478
  H   1.84698   3.42064  -3.41408
  H  -0.79952   4.35334  -3.22848
  H   0.48758   5.19154  -4.05068
  H   1.04998   2.62734  -7.43338
  H  -0.50242   2.99054  -8.26968
  H  -0.51212   0.85534  -9.45128
  H   0.80918   0.29554  -8.43308
  H  -2.48602   1.52924  -4.84488
  H  -1.25282   0.59194  -4.08528
  H  -1.57092   2.00184  -3.37548
  H   1.59618   1.00154  -10.70360
  H   1.15978   2.76164  -10.30802
  H   2.46238   1.86814  -9.54898
  N  -0.54002   2.26634  -5.28618
