  70
# Step 479, RM=BF4[16] (5 atoms), C9H20N[411] (30 atoms), C9H20N[471] (30 atoms), BF4[200] (5 atoms)
  B  -0.02399   0.01223  -0.00059
  F   0.59981  -0.12677   1.24451
  F   0.33991   1.21503  -0.56859
  F   0.49831  -1.00027  -0.83029
  F  -1.42439  -0.09497   0.15471
  C  -1.44359  -2.46237   2.95201
  C  -0.53589  -0.80127   4.30471
  C  -2.57489  -0.37797   3.25381
  C  -0.07309  -2.98327   3.37591
  C   0.41691  -2.01577   4.47661
  C  -3.85969  -0.78557   2.63361
  C  -4.68239   0.47223   2.30271
  C  -2.60039  -2.01747   5.00601
  C  -5.92099   0.29763   1.51281
  H  -0.06569  -0.16527   3.55461
  H  -2.18939  -3.25537   2.89491
  H  -0.76949  -0.23617   5.20701
  H  -1.37729  -2.09287   1.92871
  H  -2.02369   0.21833   2.52671
  H  -2.88969   0.32233   4.02741
  H   1.46111  -1.71787   4.38141
  H  -0.08489  -3.92867   3.91831
  H   0.72271  -3.08447   2.63801
  H   0.12971  -2.57767   5.36531
  H  -3.80059  -1.57507   1.88441
  H  -4.48489  -1.31827   3.35021
  H  -4.90439   1.04193   3.20501
  H  -4.03739   1.10853   1.69671
  H  -2.01579  -2.73757   5.57851
  H  -2.86329  -1.27887   5.76331
  H  -3.44219  -2.59727   4.62751
  H  -6.73539  -0.17347   2.06321
  H  -5.65199  -0.50017   0.82061
  H  -6.17469   1.25403   1.05551
  N  -1.76249  -1.45287   3.91151
  C  -2.07799   4.13373  -3.82369
  C  -3.22829   2.20563  -4.03199
  C  -2.75489   2.85953  -1.79319
  C  -2.95469   2.61003  -5.46389
  C  -2.17959   3.91713  -5.32319
  C  -2.06119   3.82943  -0.85269
  C  -2.67909   3.84363   0.60531
  C  -0.97069   2.16393  -3.13719
  C  -3.92949   4.70683   0.77751
  H  -4.23129   2.53313  -3.75819
  H  -2.90039   4.71113  -3.40139
  H  -1.19679   4.67723  -3.48299
  H  -3.20499   1.14063  -3.80149
  H  -3.80109   3.16433  -1.81889
  H  -2.72849   1.87983  -1.31619
  H  -1.12519   3.90853  -5.59909
  H  -2.28829   1.92183  -5.98379
  H  -3.90659   2.69253  -5.98849
  H  -2.72499   4.79623  -5.66659
  H  -2.18519   4.82803  -1.27149
  H  -1.03649   3.47803  -0.73159
  H  -2.72999   2.84913   1.04861
  H  -1.97019   4.35083   1.25971
  H  -1.06299   1.15733  -2.72939
  H  -0.63009   2.13983  -4.17229
  H  -0.16809   2.62633  -2.56269
  H  -3.87379   5.19963   1.74811
  H  -4.83369   4.13313   0.57391
  H  -3.74329   5.56213   0.12801
  N  -2.24129   2.85993  -3.15869
  B  -1.84229  -0.94917  -5.67389
  F  -1.63559  -0.71177  -7.04199
  F  -1.41239  -2.21417  -5.31509
  F  -1.00169  -0.16987  -4.98949
  F  -3.21299  -0.76647  -5.36659
