  70
# Step 360, RM=BF4[46] (5 atoms), C9H20N[132] (30 atoms), C9H20N[416] (30 atoms), BF4[491] (5 atoms)
  B  -0.02469  -0.02086   0.00766
  F  -0.16489   1.10864  -0.80204
  F   1.33061   0.09914   0.40978
  F  -0.26259  -1.21306  -0.70346
  F  -0.88909   0.01714   1.09136
  C   3.32451  -1.25252   2.69436
  C   2.43261  -3.31231   3.39645
  C   2.76661  -1.49767   4.98813
  C   2.79371  -3.54361   1.92497
  C   3.47741  -2.25770   1.48295
  C   1.98651  -2.19860   6.12592
  C   2.43501  -1.71038   7.55457
  C   1.08041  -1.33142   3.21009
  C   1.59761  -2.34621   8.65221
  H   1.47311  -3.76721   3.64261
  H   3.17311  -3.71921   4.08499
  H   4.35221  -1.18465   3.05123
  H   3.02381  -0.31580   2.22506
  H   3.78721  -1.83771   5.16356
  H   2.77161  -0.44372   5.26609
  H   4.52241  -2.49625   1.28506
  H   3.09761  -1.92111   0.51830
  H   1.92721  -3.75834   1.29949
  H   3.48431  -4.38478   1.86476
  H   0.92511  -1.95955   6.05877
  H   1.95771  -3.25435   5.85636
  H   2.42131  -0.62086   7.58366
  H   3.47131  -1.95910   7.78299
  H   0.35531  -1.80384   3.87284
  H   1.02131  -0.24411   3.25873
  H   0.89461  -1.59397   2.16863
  H   0.59881  -2.12483   8.27611
  H   1.82261  -3.41252   8.63044
  H   1.72321  -1.99035   9.67481
  N   2.39881  -1.83364   3.59565
  C  -3.59229  -1.15272   2.97341
  C  -4.07179   0.80821   1.87202
  C  -4.30009  -1.25472   0.67902
  C  -3.52329  -0.12058   4.12642
  C  -3.99779   1.19676   3.42128
  C  -4.67259  -2.75256   0.66473
  C  -4.55139  -3.28189  -0.78925
  C  -5.95009  -0.68651   2.22339
  C  -4.57489  -4.85517  -0.69770
  H  -4.07039  -2.07474   3.30419
  H  -2.60279  -1.43975   2.61756
  H  -4.85359   1.30643   1.29873
  H  -3.12559   0.89403   1.33769
  H  -4.64219  -0.69654  -0.19245
  H  -3.26329  -1.16252   0.35543
  H  -5.00499   1.40551   3.78194
  H  -3.34869   2.05540   3.59301
  H  -4.04969  -0.49148   5.00584
  H  -2.51099   0.06802   4.48382
  H  -4.01809  -3.25806   1.37477
  H  -5.68909  -2.89736   1.03077
  H  -3.67479  -2.82816  -1.25172
  H  -5.43489  -3.01275  -1.36813
  H  -6.63989  -0.30932   1.46840
  H  -6.19359  -0.19947   3.16764
  H  -6.28909  -1.67161   2.54396
  H  -5.44779  -5.25912  -0.18494
  H  -3.61249  -5.25483  -0.37794
  H  -4.59879  -5.20622  -1.72935
  N  -4.48589  -0.56216   1.92304
  B   4.96781   0.84614  -0.83786
  F   4.23971   1.35235  -1.88636
  F   6.33531   0.81098  -1.15276
  F   4.92351   1.73652   0.22114
  F   4.55991  -0.43460  -0.46276
