  76
# Step 647, RM=CF3O3S[448] (8 atoms), CF3O3S[243] (8 atoms), C9H20N[287] (30 atoms), C9H20N[347] (30 atoms)
  C  -0.43623  -0.59179   0.50360
  F  -1.47623  -0.94185  -0.25080
  F   0.25737  -1.71699   0.70780
  F  -0.89223  -0.12488   1.62730
  O   0.74677  -0.06654  -1.73170
  O  -0.44753   1.71668  -0.56050
  O   1.55617   0.82847   0.42290
  S   0.48837   0.63422  -0.49080
  C  -3.02753  -0.19410   5.80048
  F  -3.63263   0.86869   5.39204
  F  -2.87223  -1.02150   4.79494
  F  -1.71643   0.15800   6.07099
  O  -5.17453  -1.23044   6.82927
  O  -3.55383  -0.03736   8.24820
  O  -3.08563  -2.31261   7.33763
  S  -3.80463  -1.04047   7.23283
  C  -3.14383   5.00187  -3.66820
  C  -4.84213   4.04267  -2.42420
  C  -2.69673   2.81847  -2.69490
  C  -4.34203   6.03782  -3.66110
  C  -5.35063   5.49983  -2.64600
  C  -3.31533   1.68937  -3.61350
  C  -2.52393   0.39577  -3.66540
  C  -2.89143   4.73982  -1.30160
  C  -3.13083  -0.63052  -4.71370
  H  -5.32723   3.51891  -1.60050
  H  -3.19433   4.37503  -4.55850
  H  -5.19873   3.51133  -3.30660
  H  -2.22623   5.58883  -3.62750
  H  -1.70193   3.03253  -3.08550
  H  -2.56163   2.31728  -1.73640
  H  -4.85633   6.12492  -4.61810
  H  -5.43783   6.12222  -1.75540
  H  -4.01463   7.05852  -3.46310
  H  -6.32633   5.32607  -3.09980
  H  -3.40163   1.99536  -4.65610
  H  -4.32013   1.38631  -3.31890
  H  -1.54643   0.62069  -4.09200
  H  -2.29883  -0.05655  -2.69960
  H  -3.10213   4.01211  -0.51790
  H  -3.37353   5.66581  -0.98810
  H  -1.80633   4.82308  -1.36190
  H  -4.03723  -1.10028  -4.33190
  H  -2.38263  -1.37298  -4.99130
  H  -3.45333  -0.23315  -5.67610
  N  -3.39653   4.12298  -2.55110
  C   2.06357  -3.07495  -3.26510
  C   2.95487  -3.32092  -1.19510
  C   1.24517  -4.91786  -1.98860
  C   3.14627  -1.96964  -3.15230
  C   3.74357  -2.09780  -1.70910
  C   0.04017  -4.21121  -1.43470
  C  -0.97523  -5.12973  -0.78300
  C   3.45107  -4.87947  -2.96830
  C  -2.01423  -4.32220   0.03930
  H   1.97267  -3.41362  -4.29710
  H   1.09147  -2.65025  -3.01470
  H   3.68967  -3.88396  -0.61960
  H   2.33257  -2.95005  -0.38070
  H   0.78047  -5.48639  -2.79420
  H   1.68497  -5.51688  -1.19120
  H   4.82277  -2.20662  -1.81680
  H   3.56857  -1.26082  -1.03310
  H   3.97627  -2.06521  -3.85230
  H   2.66507  -0.99213  -3.18510
  H   0.32797  -3.54198  -0.62390
  H  -0.52983  -3.72266  -2.22500
  H  -0.44603  -5.98793  -0.36880
  H  -1.54473  -5.57845  -1.59690
  H   4.39957  -4.35643  -3.08980
  H   3.64207  -5.85014  -2.51070
  H   3.08757  -5.18988  -3.94790
  H  -2.79113  -4.95263   0.47190
  H  -1.40843  -3.83364   0.80240
  H  -2.44883  -3.50772  -0.54030
  N   2.40357  -4.06231  -2.30130
