  76
# Step 74, RM=CF3O3S[189] (8 atoms), CF3O3S[93] (8 atoms), C9H20N[228] (30 atoms), C9H20N[315] (30 atoms)
  C  -0.67407  -0.58976  -0.27421
  F  -0.93397  -1.44626   0.67439
  F  -0.35197  -1.21396  -1.47411
  F  -1.76907   0.02294  -0.50931
  O   1.84083  -0.28536   0.48309
  O   0.75863   1.56004  -0.78021
  O   0.15783   1.16934   1.50159
  S   0.68673   0.56394   0.27729
  C  -1.90817  -0.20646  -4.76371
  F  -1.84507  -1.50676  -4.48321
  F  -3.10237   0.23974  -4.49241
  F  -1.10127   0.30394  -3.85481
  O  -2.37777  -0.72346  -7.23626
  O  -1.66497   1.56584  -6.58446
  O  -0.07217  -0.37456  -6.54782
  S  -1.45237   0.09554  -6.52870
  C   2.61933   2.13344  -5.27891
  C   1.22653   2.79274  -3.63291
  C   3.04673   1.19904  -3.04691
  C   0.84393   3.56544  -4.91611
  C   1.97443   3.39354  -5.85476
  C   2.41473  -0.18936  -3.23751
  C   3.23093  -1.07766  -4.18431
  C   3.42673   3.45744  -3.35031
  C   2.60403  -2.42756  -4.50421
  H   3.66683   2.16814  -5.57820
  H   2.04173   1.26734  -5.60187
  H   1.10443   3.28264  -2.66691
  H   0.61793   1.90674  -3.45211
  H   4.12823   1.12554  -3.16121
  H   2.92933   1.48934  -2.00281
  H   0.77103   4.62054  -4.65241
  H  -0.14297   3.28434  -5.28386
  H   1.59063   3.24104  -6.86347
  H   2.70983   4.19774  -5.87845
  H   2.38493  -0.70356  -2.27691
  H   1.39163  -0.15306  -3.61171
  H   4.17213  -1.28516  -3.67511
  H   3.47023  -0.57776  -5.12291
  H   4.48103   3.45244  -3.62691
  H   3.09863   4.35544  -3.87371
  H   3.42373   3.72644  -2.29401
  H   1.60953  -2.43446  -4.95031
  H   2.46713  -3.11976  -3.67341
  H   3.25493  -2.89146  -5.24541
  N   2.58863   2.33754  -3.84331
  C   1.87873  -2.04146   3.51259
  C  -0.04797  -3.23596   3.56599
  C   1.98923  -4.34426   2.66749
  C   0.92953  -1.35206   4.42619
  C  -0.40477  -1.95916   4.29809
  C   1.73493  -4.11406   1.18609
  C   2.79453  -4.86326   0.26789
  C   1.63563  -3.94476   5.06729
  C   2.27433  -4.93906  -1.15971
  H   2.93683  -1.86196   3.70269
  H   1.75483  -1.58406   2.53099
  H  -0.21277  -3.02236   2.50989
  H  -0.57667  -4.13776   3.87489
  H   1.53833  -5.28726   2.97669
  H   3.04813  -4.56076   2.80869
  H   1.09303  -1.60256   5.47439
  H   0.88803  -0.26306   4.40459
  H  -0.91497  -2.19006   5.23319
  H  -1.10467  -1.34806   3.72819
  H   1.76773  -3.03876   1.01029
  H   0.74933  -4.54496   1.01039
  H   3.05123  -5.86496   0.61249
  H   3.77003  -4.37686   0.26419
  H   1.00343  -3.49556   5.83329
  H   1.71163  -5.01456   5.26209
  H   2.64333  -3.65276   5.36289
  H   1.97903  -3.95416  -1.52131
  H   1.42163  -5.61326  -1.23991
  H   3.07753  -5.43146  -1.70791
  N   1.41003  -3.44276   3.70089
