  76
# Step 243, RM=CF3O3S[172] (8 atoms), CF3O3S[321] (8 atoms), C9H20N[370] (30 atoms), C9H20N[392] (30 atoms)
  C   0.84169   0.22355  -0.25489
  F   1.17349  -0.37965  -1.44082
  F   1.79425  -0.26645   0.54071
  F   1.04850   1.51175  -0.45449
  O  -1.06738   0.47695   1.60203
  O  -0.79040  -1.58575   0.32034
  O  -1.72740   0.27655  -0.76938
  S  -0.90592  -0.18135   0.32275
  C   3.09242  -3.77215  -1.41454
  F   2.33746  -4.83535  -1.17869
  F   3.25507  -3.11255  -0.20921
  F   2.27507  -3.01465  -2.08274
  O   5.29762  -5.06715  -1.30247
  O   4.22884  -4.87265  -3.46930
  O   5.40626  -2.94915  -2.49192
  S   4.71875  -4.22785  -2.26645
  C  -1.26884  -5.03605   2.48973
  C   0.53460  -4.42995   3.70891
  C  -1.56659  -4.84995   4.86001
  C   0.97841  -4.14825   2.26614
  C  -0.23678  -4.72315   1.49101
  C  -1.23868  -6.29975   5.26171
  C  -2.02299  -6.73525   6.48891
  C  -1.44518  -2.93045   3.47581
  C  -1.86237  -8.24725   6.86711
  H   0.77479  -5.44975   4.00961
  H   0.98316  -3.66545   4.34331
  H  -2.20334  -4.78435   1.98826
  H  -1.38693  -6.11105   2.62584
  H  -1.17185  -4.24345   5.67511
  H  -2.62811  -4.63685   4.98601
  H   0.96001  -3.06465   2.14995
  H   0.03810  -5.67225   1.03074
  H  -0.54170  -3.99235   0.74196
  H   1.96560  -4.38205   1.86751
  H  -0.23613  -6.40005   5.67761
  H  -1.38758  -6.99945   4.43941
  H  -3.08785  -6.50455   6.45821
  H  -1.70194  -6.15875   7.35651
  H  -1.26640  -2.54135   2.47342
  H  -2.50418  -2.90965   3.73301
  H  -0.97363  -2.15165   4.07521
  H  -2.16333  -8.87735   6.03011
  H  -0.81196  -8.34405   7.14161
  H  -2.45046  -8.61845   7.70641
  N  -0.90761  -4.29545   3.70501
  C  -2.15630  -3.41025  -4.62274
  C  -0.23974  -2.28915  -3.96493
  C  -0.37989  -4.71125  -3.55794
  C  -2.65132  -2.01885  -4.66984
  C  -1.35006  -1.21135  -4.33551
  C   0.19599  -5.30435  -4.85880
  C   1.07122  -6.52345  -4.65127
  C  -1.79854  -3.29975  -2.34591
  C   0.47053  -7.75805  -3.92905
  H   0.39360  -1.86795  -3.18418
  H   0.35920  -2.55205  -4.83686
  H  -2.92092  -4.18125  -4.52783
  H  -1.82260  -3.62995  -5.63687
  H  -1.11093  -5.45855  -3.24943
  H   0.32072  -4.64985  -2.72518
  H  -1.04884  -0.70475  -5.25244
  H  -2.98753  -1.78895  -5.68087
  H  -1.45004  -0.57605  -3.45540
  H  -3.53741  -1.93935  -4.04006
  H   0.69385  -4.46815  -5.34971
  H  -0.57024  -5.63905  -5.55805
  H   1.89830  -6.15435  -4.04482
  H   1.54181  -6.85635  -5.57638
  H  -2.34497  -2.38295  -2.12454
  H  -2.49911  -4.10915  -2.14076
  H  -1.01764  -3.35555  -1.58750
  H   1.06416  -8.67115  -3.97437
  H  -0.41399  -8.13415  -4.44314
  H   0.29495  -7.56045  -2.87160
  N  -1.11297  -3.46835  -3.59044
