  76
# Step 516, RM=CF3O3S[302] (8 atoms), CF3O3S[438] (8 atoms), C9H20N[280] (30 atoms), C9H20N[338] (30 atoms)
  C  -0.64302   0.64768   0.14620
  F  -1.07007   1.13908  -0.95800
  F  -0.23241   1.63288   0.93130
  F  -1.57688   0.11678   0.84760
  O   1.00038  -1.00942   1.13400
  O   1.69041  -0.01392  -0.98080
  O  -0.04874  -1.65622  -0.87800
  S   0.62850  -0.61712  -0.17950
  C  -2.66314   4.60508  -1.35970
  F  -1.70684   3.73378  -1.25280
  F  -3.39836   4.23888  -2.36690
  F  -3.43997   4.57178  -0.29890
  O  -1.37361   6.24588  -2.84930
  O  -3.33332   7.08738  -1.70390
  O  -1.36265   6.62248  -0.40500
  S  -2.13728   6.32608  -1.62880
  C  -0.30742   0.70338   6.12870
  C  -0.84158   0.88128   4.00870
  C   1.22721  -0.33542   4.52380
  C  -1.77065   1.14018   6.17500
  C  -2.16432   1.39558   4.77010
  C   2.35175   0.71898   4.47320
  C   3.80536   0.15958   4.34860
  C  -0.93802  -1.28202   4.98740
  C   3.81796  -1.01222   3.30680
  H  -1.09906   0.34448   3.09570
  H  -0.18875   1.73428   3.82340
  H   0.29770   1.59838   6.27340
  H  -0.09902   0.14618   7.04210
  H   1.70072  -1.03522   5.21250
  H   1.13789  -0.80992   3.54650
  H  -2.22787   2.46548   4.57150
  H  -1.74823   2.08478   6.71840
  H  -2.38098   0.36398   6.63670
  H  -2.99800   0.80548   4.38950
  H   2.43305   1.39308   5.32590
  H   2.00071   1.32548   3.63840
  H   4.18647  -0.30062   5.26030
  H   4.48676   0.98538   4.14400
  H  -0.73611  -1.97332   4.16930
  H  -0.70897  -1.87222   5.87460
  H  -2.01628  -1.20462   4.84790
  H   3.38933  -0.61242   2.38780
  H   3.15244  -1.82442   3.59910
  H   4.81447  -1.41312   3.12150
  N  -0.15094  -0.05182   4.86390
  C   4.71383  -3.71602  -2.00250
  C   3.03219  -3.49002  -0.43450
  C   5.35581  -3.41592   0.42890
  C   3.50682  -3.62182  -2.84720
  C   2.37629  -3.40352  -1.87550
  C   5.29769  -4.90912   0.90800
  C   6.31395  -5.25172   2.01760
  C   4.49971  -1.61352  -0.79590
  C   6.39045  -6.76542   2.33740
  H   5.55535  -3.25122  -2.51630
  H   4.82686  -4.79722  -1.92340
  H   2.91136  -4.50762  -0.06310
  H   2.47337  -2.83132   0.23020
  H   6.32025  -3.18552  -0.02380
  H   5.14243  -2.80292   1.30470
  H   1.60618  -4.15552  -2.04730
  H   1.86800  -2.47082  -2.12000
  H   3.33851  -4.46222  -3.52060
  H   3.51117  -2.76392  -3.51960
  H   5.42696  -5.54582   0.03280
  H   4.38701  -5.00982   1.49850
  H   5.99945  -4.81622   2.96610
  H   7.29855  -4.89052   1.72060
  H   3.96852  -1.20992  -1.65780
  H   4.08586  -1.12052   0.08380
  H   5.49621  -1.23592  -1.02500
  H   7.34805  -7.16992   2.00960
  H   5.51765  -7.31752   1.98870
  H   6.45385  -6.87112   3.42040
  N   4.38579  -3.07772  -0.65400
