  70
# Step 92, RM=BF4[44] (5 atoms), C9H20N[9] (30 atoms), C9H20N[432] (30 atoms), BF4[11] (5 atoms)
  B   0.01320   0.01788  -0.00861
  F   1.22780   0.16546   0.63673
  F   0.19190   0.25707  -1.32194
  F  -0.47480  -1.29532   0.14149
  F  -0.95240   0.86262   0.54863
  C  -3.78870   0.85110  -4.64369
  C  -2.09270  -0.19383  -3.58819
  C  -3.95660   0.37083  -2.17303
  C  -1.64140  -0.06829  -5.00798
  C  -2.58750   0.94056  -5.59948
  C  -4.86380  -0.84313  -2.40548
  C  -5.91800  -1.14084  -1.26768
  C  -2.66090   2.06720  -2.96502
  C  -5.36610  -1.59091   0.14293
  H  -2.31440  -1.23365  -3.34789
  H  -1.17330   0.10174  -3.08280
  H  -4.36960  -0.05376  -4.82232
  H  -4.31770   1.76039  -4.92903
  H  -4.63410   1.18190  -1.90624
  H  -3.23180   0.15253  -1.38869
  H  -3.06530   0.70218  -6.54970
  H  -2.23090   1.96560  -5.70087
  H  -0.60390   0.16125  -5.25072
  H  -1.72050  -0.98985  -5.58469
  H  -5.37530  -0.78558  -3.36629
  H  -4.27820  -1.73888  -2.61222
  H  -6.42720  -2.04280  -1.60720
  H  -6.63520  -0.32471  -1.18086
  H  -2.10770   1.97304  -2.03057
  H  -1.88540   2.42411  -3.64275
  H  -3.44670   2.82251  -2.95042
  H  -4.78090  -0.75633   0.52923
  H  -4.77240  -2.50500   0.13348
  H  -6.04820  -1.89588   0.93653
  N  -3.16940   0.77708  -3.33941
  C   2.61920   3.11236  -3.29816
  C   3.60260   1.22382  -4.02512
  C   4.40010   3.50227  -4.93366
  C   1.71000   2.01953  -2.79136
  C   2.41630   0.71134  -3.25759
  C   5.05570   3.03309  -6.32280
  C   6.42080   3.69425  -6.62868
  C   2.32930   2.55629  -5.63785
  C   7.09280   3.31221  -7.96170
  H   2.06440   4.01352  -3.55944
  H   3.99720   0.55977  -4.79417
  H   4.53260   1.20671  -3.45682
  H   3.38770   3.52420  -2.64410
  H   5.20370   3.40079  -4.20429
  H   4.14140   4.54808  -5.09947
  H   0.74190   2.00295  -3.29189
  H   1.70390   0.17373  -3.88332
  H   2.69500   0.00700  -2.47378
  H   1.58090   2.13835  -1.71557
  H   5.39190   1.99775  -6.26641
  H   4.38370   3.07112  -7.18011
  H   6.25660   4.76898  -6.55065
  H   7.10910   3.48666  -5.80934
  H   1.34600   2.16409  -5.37844
  H   2.67610   1.81195  -6.35464
  H   2.27380   3.52989  -6.12481
  H   7.03980   2.22646  -8.04195
  H   8.05050   3.82426  -8.05532
  H   6.59720   3.78194  -8.81129
  N   3.28740   2.61002  -4.54602
  B  -2.63740  -6.05173   1.26993
  F  -2.71630  -7.10093   0.27093
  F  -2.77630  -4.81693   0.65393
  F  -1.43690  -6.12603   1.98453
  F  -3.67280  -6.21033   2.16623
