  70
# Step 189, RM=BF4[190] (5 atoms), C9H20N[408] (30 atoms), C9H20N[485] (30 atoms), BF4[144] (5 atoms)
  B  -0.01250   0.00234   0.01717
  F   1.08270  -0.77026   0.32014
  F  -1.13500  -0.80146  -0.17649
  F   0.23310   0.67994  -1.17211
  F  -0.17370   0.89044   1.01871
  C  -1.14410   0.01914   4.49593
  C   0.25750  -0.60066   6.08243
  C   0.87150   1.35894   4.69503
  C  -0.72740  -1.83346   6.00883
  C  -1.69580  -1.36256   4.94603
  C   0.59490   2.30304   5.82923
  C   1.01780   3.70554   5.46363
  C   0.99300  -0.81446   3.77363
  C   0.90120   4.61954   6.67623
  H  -1.38930   0.21884   3.45283
  H  -1.70620   0.63954   5.19393
  H   1.22560  -0.89086   6.49083
  H  -0.05890   0.01724   6.92283
  H   1.95620   1.33054   4.59163
  H   0.64880   1.89514   3.77253
  H  -1.69880  -1.98816   4.05343
  H  -0.26750  -2.74406   5.62503
  H  -2.67090  -1.22626   5.41353
  H  -1.13440  -2.04696   6.99723
  H  -0.44470   2.30264   6.15693
  H   1.02380   1.83654   6.71603
  H   0.48110   4.13034   4.61533
  H   2.02950   3.64024   5.06333
  H   0.58720  -1.81876   3.65153
  H   1.99480  -1.04096   4.13853
  H   1.09020  -0.36966   2.78333
  H   1.21960   5.62894   6.41583
  H   1.48820   4.29344   7.53493
  H  -0.12230   4.62724   7.05113
  N   0.26620  -0.03186   4.73883
  C  -0.64870  -5.26906  -0.00062
  C  -2.65070  -5.87466   1.03592
  C  -2.75530  -5.38016  -1.36363
  C  -1.07930  -4.04076   1.01745
  C  -2.32710  -4.53296   1.64443
  C  -3.09400  -3.83946  -1.44850
  C  -3.79950  -3.25906  -2.68231
  C  -1.67640  -7.24706  -0.76862
  C  -3.55980  -1.78166  -2.89851
  H  -3.73110  -6.01136   0.98833
  H  -0.19960  -4.94226  -0.93853
  H  -2.23050  -6.66946   1.65233
  H  -0.13180  -5.97986   0.64416
  H  -2.31950  -5.64406  -2.32726
  H  -3.66560  -5.97866  -1.39878
  H  -1.31680  -3.13506   0.45942
  H  -3.10950  -3.83666   1.34263
  H  -0.23350  -3.80926   1.66493
  H  -2.29310  -4.60786   2.73133
  H  -3.48240  -3.47436  -0.49775
  H  -2.09880  -3.39976  -1.51515
  H  -4.87050  -3.45606  -2.63636
  H  -3.47090  -3.89646  -3.50323
  H  -1.10300  -7.19336  -1.69403
  H  -1.10360  -7.88866  -0.09899
  H  -2.49760  -7.94866  -0.91526
  H  -3.87130  -1.50456  -3.90565
  H  -2.48040  -1.63046  -2.89216
  H  -3.94630  -1.10806  -2.13367
  N  -1.95340  -5.92906  -0.23322
  B  -3.05260   5.69194  -1.05263
  F  -4.23720   5.39034  -0.42962
  F  -2.00020   5.87684  -0.14491
  F  -2.81950   4.64674  -1.93779
  F  -3.04480   6.80534  -1.79880
