  70
# Step 802, RM=BF4[452] (5 atoms), C9H20N[238] (30 atoms), C9H20N[369] (30 atoms), BF4[189] (5 atoms)
  B   0.04445   0.04789   0.02471
  F  -1.06065   0.84979   0.30021
  F   0.48225  -0.54551   1.20411
  F  -0.39495  -0.99541  -0.74249
  F   0.94805   0.66389  -0.77589
  C  -4.45539  -2.02801  -0.51339
  C  -4.57135  -0.86711   1.40011
  C  -5.18138  -3.22081   1.61521
  C  -4.48553   0.16599   0.27961
  C  -4.01305  -0.63301  -0.85359
  C  -4.93962  -4.71701   1.24531
  C  -5.87855  -5.62411   2.05571
  C  -2.84730  -2.47501   1.08221
  C  -7.25902  -5.63501   1.44361
  H  -4.05056  -2.85921  -1.09089
  H  -5.52556  -2.18981  -0.64249
  H  -3.95611  -0.68301   2.28081
  H  -5.59372  -0.69441   1.73631
  H  -4.96270  -3.06441   2.67151
  H  -6.19229  -2.86701   1.41281
  H  -4.50796  -0.41141  -1.79909
  H  -3.68390   0.89029   0.42391
  H  -5.42666   0.67179   0.06411
  H  -2.92379  -0.62621  -0.89299
  H  -3.92598  -5.01831   1.50951
  H  -5.01955  -4.96651   0.18731
  H  -5.82834  -5.29571   3.09381
  H  -5.50479  -6.64751   2.08681
  H  -2.20234  -1.65691   0.76161
  H  -2.55947  -2.68031   2.11331
  H  -2.52920  -3.36511   0.53931
  H  -8.00846  -6.25821   1.93151
  H  -7.11275  -5.99901   0.42671
  H  -7.60921  -4.60351   1.48371
  N  -4.26568  -2.23021   0.91401
  C   0.31925   3.02509  -3.36959
  C  -1.94155   3.34089  -3.76439
  C  -0.58045   5.30029  -3.26089
  C  -0.32225   1.63339  -3.62719
  C  -1.80315   1.81499  -3.84799
  C  -1.63705   6.29699  -2.81829
  C  -1.26625   7.71269  -3.29369
  C  -1.14855   3.62579  -1.58759
  C  -2.45325   8.72709  -3.07229
  H   1.13805   3.07799  -2.65209
  H  -2.93275   3.66279  -3.44509
  H  -1.77615   3.67549  -4.78849
  H   0.72775   3.39759  -4.30899
  H  -0.31955   5.47109  -4.30539
  H   0.42295   5.42729  -2.85439
  H  -2.39505   1.26919  -3.11329
  H  -0.01815   1.19849  -4.57929
  H  -0.15725   0.91539  -2.82379
  H  -2.09495   1.28189  -4.75279
  H  -2.62995   5.99779  -3.15399
  H  -1.71445   6.33359  -1.73169
  H  -0.43805   8.05909  -2.67539
  H  -1.01895   7.68909  -4.35499
  H  -2.01665   4.25359  -1.38629
  H  -1.50505   2.61449  -1.39189
  H  -0.28045   3.77329  -0.94509
  H  -2.68035   8.82069  -2.01029
  H  -2.24385   9.73849  -3.42079
  H  -3.33565   8.61039  -3.70149
  N  -0.83535   3.82389  -2.99449
  B  -4.39785   4.95509  -0.10509
  F  -4.37915   3.62369  -0.47859
  F  -3.19505   5.26579   0.40201
  F  -5.45375   5.21299   0.80501
  F  -4.59645   5.73259  -1.27149
