  76
# Step 769, RM=CF3O3S[66] (8 atoms), CF3O3S[229] (8 atoms), C9H20N[335] (30 atoms), C9H20N[457] (30 atoms)
  C   0.13323   0.84324   0.27987
  F  -0.94773   1.57133   0.08387
  F   1.13134   1.30943  -0.41243
  F   0.41047   1.05928   1.55487
  O  -1.30504  -1.23005   0.43807
  O  -0.22255  -0.71447  -1.72103
  O   0.98216  -1.63507   0.17957
  S  -0.12973  -0.86414  -0.28083
  C  -4.68585   5.24762  -1.26343
  F  -5.11785   4.45678  -0.30653
  F  -5.31505   6.41421  -1.21523
  F  -5.17215   4.65241  -2.34493
  O  -2.45145   4.03826  -1.05793
  O  -2.66805   6.14522   0.03367
  O  -2.57295   6.04140  -2.40493
  S  -2.90525   5.38946  -1.16663
  C  -0.81012  -6.58202  -0.50733
  C  -0.03776  -4.68372   0.46977
  C  -1.14990  -4.37622  -1.70083
  C  -0.24219  -7.04692   0.78627
  C   0.22436  -5.74442   1.57467
  C   0.11305  -4.34422  -2.56663
  C  -0.05638  -4.16392  -4.08553
  C  -2.36430  -5.04222   0.28157
  C  -0.59847  -2.77952  -4.61273
  H  -1.68334  -7.10432  -0.89813
  H  -0.01435  -6.74962  -1.23313
  H   0.82307  -4.70552  -0.19853
  H  -0.20876  -3.70252   0.91257
  H  -1.90552  -4.85792  -2.32143
  H  -1.53337  -3.36772  -1.54643
  H  -0.98874  -7.58622   1.36927
  H   0.63429  -7.65662   0.56687
  H  -0.32993  -5.59402   2.50107
  H   1.26577  -5.95392   1.81887
  H   0.54843  -5.33272  -2.42063
  H   0.83074  -3.65692  -2.11863
  H  -0.56453  -4.98242  -4.59533
  H   0.93865  -4.19702  -4.52923
  H  -2.51265  -4.02682   0.64917
  H  -3.20961  -5.26232  -0.37043
  H  -2.41945  -5.61372   1.20817
  H  -0.08309  -2.00532  -4.04423
  H  -0.46114  -2.60542  -5.67993
  H  -1.67656  -2.82782  -4.45943
  N  -1.09573  -5.13072  -0.44543
  C   3.82075  -3.49602   4.05667
  C   4.55335  -1.61532   2.88487
  C   2.22245  -1.72372   3.39347
  C   4.09545  -4.04972   2.58517
  C   4.63875  -2.75662   1.83757
  C   1.06035  -2.08762   4.37897
  C  -0.19112  -1.33192   3.92057
  C   3.79855  -1.39652   5.18197
  C  -1.54468  -1.66672   4.60027
  H   5.57035  -1.59042   3.27627
  H   3.04655  -4.02962   4.60797
  H   4.32515  -0.67942   2.37477
  H   4.76855  -3.69242   4.55777
  H   2.19065  -0.64192   3.26357
  H   2.13235  -2.12862   2.38547
  H   3.11955  -4.39112   2.23987
  H   4.79285  -4.88492   2.52037
  H   5.60725  -2.94042   1.37227
  H   3.92865  -2.53932   1.03957
  H   1.22510  -1.75872   5.40497
  H   0.79158  -3.14292   4.42677
  H   0.01063  -0.26332   3.99577
  H  -0.32900  -1.55772   2.86317
  H   3.61165  -0.33312   5.03217
  H   3.18515  -1.88802   5.93717
  H   4.83645  -1.53682   5.48407
  H  -1.55070  -1.22812   5.59807
  H  -2.35163  -1.12032   4.11207
  H  -1.75832  -2.72812   4.72647
  N   3.60995  -2.05742   3.88837
