  70
# Step 304, RM=BF4[353] (5 atoms), C9H20N[395] (30 atoms), C9H20N[438] (30 atoms), BF4[241] (5 atoms)
  B   0.01355  -0.00665  -0.03900
  F   0.99995  -0.65981   0.65090
  F  -0.94955  -0.89899  -0.29140
  F   0.42095   0.60236  -1.19800
  F  -0.47905   0.96024   0.86070
  C  -3.28355   2.98531  -2.03130
  C  -4.83335   2.56148  -0.58010
  C  -5.50445   2.58630  -2.85690
  C  -2.85875   1.52681  -1.65780
  C  -3.94985   1.29508  -0.59520
  C  -5.71635   3.41201  -4.17080
  C  -6.38785   2.59900  -5.32990
  C  -4.87625   4.65301  -1.68450
  C  -6.34215   3.35121  -6.70350
  H  -2.58305   3.62941  -1.49980
  H  -2.99135   3.25411  -3.04640
  H  -5.81805   2.24150  -0.23930
  H  -4.42595   3.18121   0.21870
  H  -5.07965   1.59128  -2.98940
  H  -6.48205   2.35177  -2.43570
  H  -1.85595   1.30800  -1.29090
  H  -3.48465   1.10115   0.37130
  H  -4.46925   0.34363  -0.70960
  H  -3.07635   0.77036  -2.41190
  H  -4.80585   3.77451  -4.64790
  H  -6.31115   4.30801  -3.99360
  H  -5.78305   1.70949  -5.50620
  H  -7.43135   2.32357  -5.17720
  H  -4.65385   5.17721  -2.61400
  H  -5.90785   4.90961  -1.44320
  H  -4.26615   5.02821  -0.86290
  H  -7.04535   4.15351  -6.47990
  H  -5.35165   3.74731  -6.92730
  H  -6.67735   2.76611  -7.55990
  N  -4.67225   3.21251  -1.82460
  C   3.17579   4.11871   1.79780
  C   3.37472   1.92376   1.23170
  C   4.11499   3.56011  -0.40890
  C   2.80925   3.32641   3.00410
  C   2.61469   1.90341   2.52970
  C   4.36241   2.44111  -1.43130
  C   5.16747   2.76101  -2.68440
  C   1.77172   3.30941   0.06410
  C   6.69716   2.87661  -2.40310
  H   2.53377   4.99721   1.73370
  H   2.91979   1.13907   0.62720
  H   4.42824   1.73850   1.44110
  H   4.15082   4.58791   1.92920
  H   5.08266   3.66901   0.08080
  H   3.71798   4.43641  -0.92130
  H   1.96396   3.78501   3.51720
  H   1.55842   1.67571   2.38640
  H   3.03355   1.14310   3.18890
  H   3.64287   3.35951   3.70560
  H   4.83902   1.60111  -0.92590
  H   3.37827   2.11719  -1.76980
  H   5.05691   2.01690  -3.47320
  H   4.86197   3.72791  -3.08420
  H   0.99438   3.11571   0.80330
  H   1.56120   4.26331  -0.41940
  H   1.74202   2.51866  -0.68550
  H   7.28589   2.00244  -2.68100
  H   7.05448   3.61111  -3.12480
  H   6.87835   3.07721  -1.34710
  N   3.15163   3.22041   0.61210
  B   0.49917   5.21291  -2.85660
  F   0.05060   5.73781  -4.03760
  F   1.63681   4.46751  -3.13010
  F   0.76835   6.25231  -1.98900
  F  -0.49206   4.37451  -2.29370
