  70
# Step 189, RM=BF4[53] (5 atoms), C9H20N[295] (30 atoms), C9H20N[375] (30 atoms), BF4[247] (5 atoms)
  B  -0.02510   0.04064  -0.00827
  F  -0.88380   0.72194  -0.78977
  F  -0.55940  -1.24776   0.24313
  F   0.23390   0.72954   1.18483
  F   1.22360  -0.22686  -0.63347
  C   2.68070  -4.39706  -2.69287
  C   1.21740  -3.14436  -1.65557
  C   0.81740  -5.59616  -2.11247
  C   3.33310  -3.04876  -2.81357
  C   2.38140  -2.19106  -2.04477
  C  -0.68680  -5.80206  -2.02017
  C  -1.19210  -7.08016  -1.16067
  C   0.49860  -3.95446  -3.88617
  C  -2.68010  -7.34166  -1.36477
  H   2.93870  -5.13486  -3.45257
  H   3.02800  -4.73176  -1.71537
  H   0.24490  -2.65236  -1.67177
  H   1.43000  -3.41076  -0.62017
  H   1.20000  -5.91976  -1.14447
  H   1.18190  -6.29966  -2.86107
  H   3.39370  -2.83496  -3.88077
  H   2.02330  -1.36056  -2.65317
  H   2.87440  -1.88716  -1.12127
  H   4.32830  -3.08256  -2.37027
  H  -1.14570  -4.95306  -1.51347
  H  -1.08060  -5.94866  -3.02597
  H  -0.59310  -7.94946  -1.43187
  H  -1.10230  -6.97496  -0.07947
  H   0.47400  -4.82346  -4.54367
  H   1.04850  -3.15056  -4.37557
  H  -0.54920  -3.73896  -3.67707
  H  -3.08800  -6.81396  -2.22687
  H  -2.88210  -8.37196  -1.65767
  H  -3.19360  -7.03506  -0.45357
  N   1.24060  -4.28266  -2.59717
  C   1.63920   3.02004  -3.26747
  C   1.67710   3.20704  -0.92027
  C  -0.28900   3.85164  -2.15707
  C   2.94610   2.44644  -1.35887
  C   3.02760   2.62244  -2.86067
  C  -0.96880   4.37334  -3.46217
  C  -2.46500   4.18394  -3.38037
  C   1.73890   5.23374  -2.29667
  C  -3.13880   5.36764  -2.74717
  H   1.81290   3.94944  -0.13377
  H   1.08040   2.08494  -3.30697
  H   0.98560   2.45754  -0.53517
  H   1.59460   3.50214  -4.24407
  H  -0.61880   2.82244  -2.01547
  H  -0.63410   4.49194  -1.34527
  H   2.75090   1.41214  -1.07567
  H   3.83100   2.73724  -0.79267
  H   3.37350   1.71224  -3.35057
  H   3.71890   3.42364  -3.12227
  H  -0.71750   5.41624  -3.65537
  H  -0.57160   3.80694  -4.30457
  H  -2.65060   3.33494  -2.72247
  H  -2.79470   3.94114  -4.39057
  H   1.49010   5.57284  -3.30227
  H   1.38570   5.86734  -1.48317
  H   2.82310   5.25944  -2.18737
  H  -3.19760   6.22454  -3.41827
  H  -2.67650   5.63624  -1.79727
  H  -4.16880   5.17154  -2.44937
  N   1.18370   3.88724  -2.15797
  B   1.02830  -0.36286  -5.43847
  F   2.29190  -0.65596  -5.02697
  F   0.70460  -1.01016  -6.65647
  F   0.88110   1.00184  -5.56777
  F   0.14100  -0.82706  -4.51747
