  76
# Step 308, RM=CF3O3S[294] (8 atoms), CF3O3S[258] (8 atoms), C9H20N[129] (30 atoms), C9H20N[329] (30 atoms)
  C  -0.69150   0.31882  -0.53216
  F  -1.91880  -0.12587  -0.15936
  F  -0.56750  -0.06579  -1.78796
  F  -0.67760   1.66844  -0.62256
  O   1.94890   0.01548  -0.02966
  O   0.53830  -1.73609   0.47284
  O   0.40430   0.33193   1.84434
  S   0.69080  -0.30149   0.58054
  C  -1.73790   1.19194   5.83474
  F  -2.78960   1.70634   5.16464
  F  -1.43210   1.94964   6.85154
  F  -0.67410   1.32664   5.00574
  O  -3.04020  -0.46445   7.38844
  O  -2.59410  -1.16544   5.06164
  O  -0.77850  -0.98646   6.73864
  S  -2.11220  -0.52245   6.29584
  C   0.80760   6.06954   2.32544
  C   0.26220   3.92584   2.73154
  C   1.46610   4.29364   0.60274
  C   0.36200   5.97194   3.80684
  C   0.11360   4.44954   4.13544
  C   0.24920   4.63324  -0.31296
  C   0.54880   4.11324  -1.67406
  C   2.62430   4.54244   2.67144
  C  -0.62390   4.26684  -2.61106
  H   0.59770   2.88884   2.74244
  H  -0.02720   6.10164   1.62534
  H  -0.69920   3.91884   2.21814
  H   1.62330   6.77404   2.16264
  H   2.39470   4.71264   0.21524
  H   1.73630   3.23914   0.54714
  H  -0.86180   4.27674   4.59004
  H   1.15770   6.22704   4.50674
  H  -0.38350   6.68874   4.15124
  H   0.80910   3.95284   4.81204
  H  -0.70910   4.26974   0.05804
  H   0.09220   5.70784  -0.40656
  H   0.86580   3.07474  -1.57776
  H   1.37230   4.75624  -1.98476
  H   3.35050   5.27284   2.31464
  H   2.59660   4.69324   3.75064
  H   2.99640   3.52924   2.52004
  H  -1.01670   5.28094  -2.68406
  H  -1.44330   3.69844  -2.17106
  H  -0.22850   3.84784  -3.53646
  N   1.29120   4.69574   2.07194
  C   4.45680  -1.51115   4.61434
  C   2.33090  -0.70024   4.53714
  C   3.08370  -2.07662   2.68854
  C   3.75020  -2.31977   5.65314
  C   2.33830  -1.87187   5.54814
  C   3.98230  -2.44068   1.50214
  C   3.52050  -3.78607   0.84894
  C   3.76830   0.22931   2.90454
  C   4.46330  -4.23850  -0.27696
  H   1.39510  -0.70612   3.97824
  H   2.43560   0.25767   5.04654
  H   4.79940  -0.62513   5.14884
  H   5.29240  -2.04048   4.15634
  H   2.09450  -1.82247   2.30804
  H   2.95380  -2.97827   3.28714
  H   1.77200  -2.76216   5.27464
  H   3.76590  -3.40522   5.55494
  H   4.19720  -2.13275   6.62954
  H   2.04780  -1.57945   6.55724
  H   5.05660  -2.49834   1.67744
  H   3.95530  -1.64262   0.76014
  H   2.52620  -3.71916   0.40744
  H   3.50130  -4.62809   1.54084
  H   2.92020   0.68772   2.39594
  H   3.97890   0.97067   3.67544
  H   4.61860   0.13533   2.22904
  H   4.43010  -5.30058  -0.51976
  H   4.11960  -3.69580  -1.15756
  H   5.48960  -4.09284   0.06014
  N   3.46410  -1.02471   3.65514
