  70
# Step 264, RM=BF4[135] (5 atoms), C9H20N[244] (30 atoms), C9H20N[302] (30 atoms), BF4[185] (5 atoms)
  B  -0.00904   0.03440   0.01234
  F  -0.57574   0.96060  -0.79307
  F   0.54966  -1.00110  -0.79441
  F   0.96956   0.66620   0.77796
  F  -0.93834  -0.64530   0.80251
  C  -1.28844   4.19250  -0.17813
  C  -1.46824   6.07930  -1.65393
  C  -3.00574   4.10330  -1.96633
  C  -0.14584   5.27240   0.09857
  C  -0.50914   6.61140  -0.51213
  C  -2.21234   3.42420  -3.09323
  C  -3.06734   2.65820  -4.04813
  C  -3.25474   5.42610  -0.13643
  C  -3.82654   3.54060  -5.13433
  H  -0.88544   3.37590  -0.77703
  H  -1.71184   3.80410   0.74807
  H  -2.14884   6.77100  -2.15043
  H  -0.78494   5.79080  -2.45263
  H  -3.58914   3.29780  -1.52043
  H  -3.70674   4.76780  -2.47163
  H   0.32016   7.24330  -0.83023
  H  -1.10814   7.17670   0.20177
  H   0.05676   5.39520   1.16247
  H   0.78866   4.94200  -0.35473
  H  -1.41804   2.79080  -2.69833
  H  -1.69364   4.10690  -3.76623
  H  -2.31364   2.05010  -4.54843
  H  -3.84344   2.06380  -3.56603
  H  -2.89524   6.03810   0.69077
  H  -4.05804   5.99430  -0.60533
  H  -3.71254   4.62400   0.44257
  H  -3.20464   4.42710  -5.25843
  H  -4.76124   3.92630  -4.72733
  H  -3.94704   2.99280  -6.06893
  N  -2.19934   4.90780  -1.05263
  C  -1.15774  -3.92450   0.10847
  C  -2.54234  -5.46900  -0.95593
  C  -3.21714  -3.13450  -0.89263
  C  -0.30754  -5.25950  -0.05053
  C  -1.24314  -6.30790  -0.72363
  C  -4.05174  -3.15220   0.44857
  C  -5.19494  -2.08240   0.51767
  C  -1.41514  -3.67550  -2.29183
  C  -6.39164  -2.35530  -0.37223
  H  -2.98964  -5.65790  -1.93173
  H  -3.35854  -5.61040  -0.24753
  H  -0.49844  -3.05800   0.05587
  H  -1.61284  -3.90270   1.09877
  H  -2.85884  -2.10820  -0.97353
  H  -3.93134  -3.37150  -1.68113
  H  -1.31344  -7.20580  -0.10973
  H   0.00236  -5.55760   0.95107
  H  -0.86514  -6.49190  -1.72933
  H   0.63826  -5.13540  -0.57803
  H  -3.51054  -2.93620   1.36967
  H  -4.49994  -4.11370   0.69897
  H  -5.55564  -2.02990   1.54497
  H  -4.83954  -1.09360   0.22777
  H  -0.51584  -4.29050  -2.32503
  H  -1.97684  -3.75280  -3.22273
  H  -0.99214  -2.69170  -2.08873
  H  -7.23064  -1.69100  -0.16523
  H  -6.15884  -2.19690  -1.42523
  H  -6.79324  -3.34770  -0.16743
  N  -2.12584  -4.03300  -1.02573
  B  -2.96274  -4.63060   3.94647
  F  -2.64004  -5.33980   2.78837
  F  -2.57984  -5.36000   5.11357
  F  -4.34844  -4.45030   3.94737
  F  -2.37844  -3.34260   3.97787
