  70
# Step 157, RM=BF4[13] (5 atoms), C9H20N[74] (30 atoms), C9H20N[265] (30 atoms), BF4[345] (5 atoms)
  B   0.02101   0.00639  -0.01409
  F   0.82261  -1.10111  -0.49699
  F  -0.28149   0.99769  -0.93989
  F  -1.22209  -0.49271   0.38391
  F   0.66901   0.59249   1.06101
  C  -1.15059   4.18789   2.68471
  C  -3.25209   3.83039   1.83391
  C  -1.33389   3.08979   0.51681
  C  -2.07039   4.58899   3.80881
  C  -3.42979   4.27479   3.28371
  C  -1.05869   4.38749  -0.36469
  C  -0.44249   4.05879  -1.77259
  C  -1.87459   1.86989   2.47801
  C   0.46411   5.13269  -2.32859
  H  -0.21009   3.75809   3.02931
  H  -0.94119   5.12969   2.17751
  H  -4.02419   3.09579   1.60521
  H  -3.33769   4.65069   1.12121
  H  -1.92519   2.38579  -0.06879
  H  -0.37679   2.58519   0.64901
  H  -3.80809   3.50329   3.95441
  H  -4.03089   5.16649   3.46171
  H  -1.83759   4.03279   4.71681
  H  -1.96999   5.62029   4.14691
  H  -0.36699   5.00579   0.20741
  H  -1.96629   4.98629  -0.43999
  H  -1.32809   3.77569  -2.34139
  H   0.15001   3.14899  -1.87009
  H  -2.48199   1.15509   1.92281
  H  -2.28099   1.83929   3.48901
  H  -0.84699   1.50699   2.49841
  H   1.36931   5.28569  -1.74109
  H   0.72331   4.92719  -3.36719
  H  -0.09449   6.06469  -2.41499
  N  -1.91459   3.21739   1.85681
  C   3.57061  -5.00491  -0.95499
  C   4.97234  -3.25051  -1.07969
  C   2.66800  -2.89591  -1.97979
  C   4.81045  -5.34941  -0.09619
  C   5.75084  -4.23881  -0.27559
  C   2.74602  -3.34091  -3.47139
  C   1.76154  -2.49561  -4.35399
  C   3.09113  -3.01131   0.41451
  C   0.35994  -2.89731  -4.08579
  H   3.64441  -5.44501  -1.94949
  H   5.25010  -3.31311  -2.13189
  H   5.39109  -2.28291  -0.80299
  H   2.64734  -5.41481  -0.54549
  H   2.83795  -1.82401  -1.87859
  H   1.61871  -3.07041  -1.74179
  H   5.30065  -6.29391  -0.33229
  H   6.12055  -3.95561   0.70991
  H   6.59739  -4.67241  -0.80799
  H   4.54036  -5.39541   0.95881
  H   2.40160  -4.36071  -3.64329
  H   3.79029  -3.26151  -3.77359
  H   1.93184  -2.84181  -5.37339
  H   1.91384  -1.41861  -4.28369
  H   3.20353  -1.92731   0.39371
  H   2.08264  -3.28621   0.72351
  H   3.59265  -3.44561   1.27941
  H   0.05666  -2.58051  -3.08789
  H   0.32091  -3.98211  -4.18459
  H  -0.31556  -2.44021  -4.80879
  N   3.55896  -3.52851  -0.94929
  B  -4.45729   4.70799  -2.05639
  F  -3.73759   3.66539  -1.50319
  F  -3.72509   5.86299  -1.93599
  F  -5.60259   4.88089  -1.27359
  F  -4.83389   4.44879  -3.40959
