  76
# Step 25, RM=CF3O3S[438] (8 atoms), CF3O3S[112] (8 atoms), C9H20N[183] (30 atoms), C9H20N[498] (30 atoms)
  C  -0.48875  -0.61946   0.53005
  F  -1.64143  -1.03026  -0.02395
  F  -0.83595  -0.08756   1.69085
  F   0.22167  -1.72096   0.80425
  O   1.05178  -0.25516  -1.50465
  O  -0.46406   1.56804  -1.03475
  O   1.44405   1.26504   0.30435
  S   0.50575   0.62764  -0.54745
  C  -3.16591   6.30004  -3.15375
  F  -3.12548   6.37464  -1.85485
  F  -4.38313   6.57834  -3.48515
  F  -2.47974   7.31184  -3.69235
  O  -2.39929   4.82264  -5.17425
  O  -3.68844   3.76164  -3.51365
  O  -1.32219   4.25894  -3.13975
  S  -2.56122   4.60414  -3.81565
  C   2.67256   4.82274  -2.99935
  C   4.42878   3.78954  -1.96055
  C   3.86568   6.02804  -1.18725
  C   3.82163   2.69944  -2.77685
  C   2.79673   3.44524  -3.59885
  C   4.92449   6.70144  -2.06745
  C   5.11850   8.07604  -1.43855
  C   2.41402   4.25904  -0.68365
  C   6.19543   9.02304  -2.11025
  H   1.61689   5.02254  -2.81555
  H   3.16929   5.49154  -3.70225
  H   5.28698   4.19384  -2.49725
  H   4.91681   3.35474  -1.08825
  H   4.27695   5.92854  -0.18275
  H   3.00095   6.68384  -1.08585
  H   2.98677   3.54064  -4.66785
  H   4.51601   2.14814  -3.41085
  H   3.34603   1.91074  -2.19385
  H   1.86795   2.87584  -3.56365
  H   4.66782   6.90234  -3.10755
  H   5.84835   6.12324  -2.08365
  H   4.16480   8.60354  -1.45765
  H   5.50857   7.88844  -0.43815
  H   2.00687   3.29594  -0.99175
  H   2.80558   4.08104   0.31785
  H   1.53834   4.90714  -0.64855
  H   6.50528   9.83524  -1.45255
  H   5.88737   9.37534  -3.09465
  H   7.19376   8.60994  -2.25405
  N   3.35804   4.77124  -1.70805
  C  -1.15661  -0.28906  -6.24605
  C  -0.03991   0.96924  -4.66035
  C  -0.87631  -1.27576  -4.00025
  C  -1.04651   1.12244  -6.87005
  C  -0.16641   1.85124  -5.89015
  C   0.47969  -2.08596  -4.25705
  C   0.58139  -3.25946  -3.29855
  C  -2.39901   0.47124  -4.32155
  C  -0.60681  -4.18376  -3.22475
  H  -0.00191   1.53664  -3.73055
  H  -0.26191  -0.74866  -6.66605
  H   0.94219   0.50024  -4.72015
  H  -2.08101  -0.82836  -6.45275
  H  -1.71221  -1.95876  -4.15145
  H  -0.86141  -0.96366  -2.95595
  H  -0.46651   1.01134  -7.78615
  H   0.76639   2.20804  -6.32665
  H  -2.03881   1.56794  -6.94035
  H  -0.72511   2.76134  -5.67135
  H   1.35679  -1.54696  -3.89885
  H   0.73289  -2.28126  -5.29915
  H   0.98549  -2.99846  -2.32035
  H   1.42149  -3.89836  -3.57075
  H  -2.78391   1.25324  -4.97615
  H  -3.13941  -0.32836  -4.34305
  H  -2.40301   0.91454  -3.32575
  H  -0.88561  -4.53186  -4.21945
  H  -1.52291  -3.85796  -2.73195
  H  -0.35431  -5.14736  -2.78225
  N  -1.09091  -0.01286  -4.73985
