  76
# Step 824, RM=CF3O3S[102] (8 atoms), CF3O3S[267] (8 atoms), C9H20N[49] (30 atoms), C9H20N[133] (30 atoms)
  C   0.50417   0.76345   0.01934
  F   0.65247   1.40845  -1.09586
  F   1.75777   0.42835   0.32524
  F   0.11347   1.64645   0.92424
  O  -0.40323  -1.28245   1.30204
  O  -1.87663  -0.26755  -0.38466
  O   0.02127  -1.60545  -1.05866
  S  -0.55713  -0.77525  -0.02776
  C   3.12227   3.74785  -3.08236
  F   2.43877   4.65255  -2.44246
  F   2.94087   2.62075  -2.42056
  F   4.35707   4.02785  -2.79846
  O   1.40627   3.22375  -5.00056
  O   3.71617   2.86445  -5.45656
  O   2.89757   5.14805  -5.24466
  S   2.73127   3.77525  -4.92476
  C   2.59197  -3.84055  -2.20406
  C   2.95517  -5.89115  -1.23256
  C   0.64177  -5.19455  -1.74416
  C   4.10487  -3.90705  -1.98806
  C   4.30107  -5.19225  -1.12136
  C   0.58497  -6.27605  -2.95486
  C  -0.83363  -6.36315  -3.49166
  C   1.72717  -4.32015   0.03374
  C  -1.01943  -7.42975  -4.65136
  H   3.02107  -6.56295  -2.08836
  H   2.75537  -6.54105  -0.38066
  H   2.26877  -4.08005  -3.21716
  H   2.30967  -2.79715  -2.06306
  H   0.04727  -5.77115  -1.03546
  H   0.05147  -4.30355  -1.95796
  H   4.65807  -4.05255  -2.91586
  H   5.06347  -5.90695  -1.43136
  H   4.46587  -4.91545  -0.07996
  H   4.55767  -3.06925  -1.45766
  H   1.26247  -5.95235  -3.74506
  H   0.95167  -7.21805  -2.54716
  H  -1.54773  -6.60305  -2.70386
  H  -1.25613  -5.44635  -3.90276
  H   1.01237  -3.49745   0.04904
  H   1.30327  -5.00755   0.76574
  H   2.61507  -3.89115   0.49804
  H  -0.10503  -7.60335  -5.21866
  H  -1.85153  -7.12295  -5.28506
  H  -1.27333  -8.38375  -4.18936
  N   1.99347  -4.84735  -1.30176
  C   3.18867  -2.29425   4.26672
  C   2.94827  -0.06845   4.78213
  C   4.53597  -1.32195   6.14951
  C   2.05567  -0.19825   3.53026
  C   2.23247  -1.71365   3.20831
  C   3.49997  -1.70375   7.27496
  C   4.18897  -1.99555   8.60134
  C   4.99717  -0.80815   3.88795
  C   2.98907  -2.15895   9.66694
  H   3.33077   0.94665   4.88849
  H   2.68937  -2.77715   5.10667
  H   3.73627  -3.06115   3.71896
  H   2.29207  -0.28245   5.62580
  H   5.34787  -2.04575   6.22078
  H   5.06997  -0.41865   6.44423
  H   1.25007  -2.16965   3.33036
  H   1.04537   0.13135   3.77289
  H   2.56487   0.47565   2.84128
  H   2.56967  -1.89105   2.18705
  H   2.77787  -2.47925   7.01941
  H   2.89807  -0.80305   7.39535
  H   4.91307  -1.24285   8.91284
  H   4.74467  -2.91025   8.39454
  H   4.68097  -0.70035   2.85040
  H   5.72087  -1.62325   3.88346
  H   5.50957   0.09975   4.20645
  H   3.30727  -2.58975  10.61634
  H   2.26437  -2.85675   9.24754
  H   2.45687  -1.22955   9.86984
  N   3.93997  -1.13985   4.79747
