  70
# Step 167, RM=BF4[169] (5 atoms), C9H20N[316] (30 atoms), C9H20N[483] (30 atoms), BF4[147] (5 atoms)
  B   0.02158   0.03185  -0.01556
  F  -0.84832  -0.86384  -0.52486
  F   0.67628   0.65067  -1.03536
  F  -0.75102   0.88996   0.70934
  F   0.91078  -0.69491   0.85974
  C  -2.88692  -1.63760   4.62194
  C  -1.23882  -0.30883   3.64934
  C  -1.16982  -2.67406   3.25264
  C  -3.09192  -0.21453   5.31144
  C  -2.10502   0.69230   4.57314
  C  -1.97102  -2.88071   1.91224
  C  -1.67192  -4.20158   1.18144
  C  -0.58622  -1.80771   5.29494
  C  -2.46172  -4.42561  -0.15366
  H  -3.10052  -2.41016   5.36054
  H  -3.58452  -1.74897   3.79174
  H  -1.70222  -0.43947   2.67144
  H  -0.19032  -0.09280   3.44444
  H  -0.12822  -2.56959   2.94904
  H  -1.26222  -3.65298   3.72304
  H  -4.10942   0.13059   5.12834
  H  -1.43032   1.17771   5.27824
  H  -2.59442   1.48644   4.00924
  H  -3.00232  -0.29514   6.39474
  H  -1.71792  -2.08878   1.20734
  H  -3.04292  -2.78888   2.08784
  H  -1.90252  -5.03404   1.84614
  H  -0.59552  -4.34401   1.08504
  H   0.42978  -1.80629   4.90024
  H  -0.72732  -2.77811   5.77084
  H  -0.58372  -1.02085   6.04924
  H  -3.46842  -4.00810  -0.17596
  H  -1.98942  -3.78975  -0.90246
  H  -2.46002  -5.39555  -0.65096
  N  -1.45132  -1.63515   4.24504
  C   0.46118  -4.02722  -3.65666
  C   2.16908  -2.51002  -4.09376
  C   1.49668  -2.42842  -1.85876
  C   1.85318  -3.19512  -5.43346
  C   0.69628  -4.08142  -5.18056
  C   2.34098  -3.54132  -1.20146
  C   2.64088  -3.11452   0.20054
  C   0.08168  -1.65162  -3.49596
  C   3.67118  -3.93242   0.95384
  H   2.55638  -1.49262  -4.14936
  H   1.12578  -4.80302  -3.27646
  H  -0.58342  -4.08692  -3.35136
  H   2.99218  -3.05522  -3.63186
  H   0.61808  -2.33052  -1.22116
  H   1.97218  -1.45122  -1.77476
  H   0.89178  -5.06202  -5.61466
  H   2.65788  -3.75962  -5.90446
  H   1.61908  -2.35572  -6.08826
  H  -0.16972  -3.59742  -5.63216
  H   3.27448  -3.78642  -1.70806
  H   1.70788  -4.42782  -1.16136
  H   1.72298  -3.28232   0.76404
  H   2.94388  -2.08112   0.36844
  H  -0.74472  -1.67522  -2.78556
  H  -0.55562  -1.70252  -4.37876
  H   0.50668  -0.65222  -3.40326
  H   3.60248  -3.66642   2.00864
  H   3.50508  -4.96072   0.63284
  H   4.67408  -3.64372   0.63944
  N   1.06558  -2.69112  -3.22716
  B  -3.40282  -3.29592  -4.21396
  F  -3.31922  -3.39822  -5.60826
  F  -4.81382  -3.24702  -3.94206
  F  -2.84272  -2.12302  -3.76006
  F  -2.82942  -4.37582  -3.64746
