  76
# Step 101, RM=CF3O3S[233] (8 atoms), CF3O3S[296] (8 atoms), C9H20N[415] (30 atoms), C9H20N[492] (30 atoms)
  C   0.27134   0.54795  -0.64950
  F   0.21064   0.00235  -1.81450
  F   1.59524   0.77875  -0.47460
  F  -0.33086   1.69615  -0.78270
  O   0.40274  -1.75705   0.34230
  O  -1.79266  -0.62505   0.50480
  O   0.14874   0.15065   1.87660
  S  -0.35626  -0.55955   0.70420
  C   1.74674   5.22185  -0.27170
  F   2.52894   5.45435  -1.31930
  F   2.54044   5.12185   0.73100
  F   1.18524   4.04565  -0.44950
  O  -0.65046   6.05455  -0.77250
  O   1.14734   7.70035  -0.41350
  O   0.24264   6.45545   1.44090
  S   0.46944   6.53185   0.02510
  C   3.55364  -0.00965   1.85780
  C   3.54914  -1.07855   3.82500
  C   3.77514  -2.48925   1.86830
  C   3.44794   1.15205   2.88310
  C   3.43074   0.46685   4.21450
  C   3.80354  -2.61135   0.35000
  C   3.50954  -4.06615  -0.03260
  C   5.62774  -1.03425   2.53670
  C   3.66894  -4.26525  -1.54010
  H   2.51684  -0.29745   1.68410
  H   4.05754   0.38475   0.97540
  H   2.52164  -1.44225   3.83290
  H   4.01654  -1.53245   4.69880
  H   4.37644  -3.28795   2.30250
  H   2.76864  -2.77485   2.17410
  H   4.31684   1.80935   2.85050
  H   4.31244   0.80495   4.75890
  H   2.52614   0.54345   4.81770
  H   2.54764   1.73705   2.69520
  H   4.73864  -2.31365  -0.12450
  H   3.08654  -1.98425  -0.17990
  H   4.27254  -4.71315   0.40000
  H   2.49764  -4.27225   0.31610
  H   6.10534  -1.76815   3.18580
  H   5.97104  -0.06535   2.89940
  H   5.98604  -1.14185   1.51290
  H   3.25094  -3.41245  -2.07500
  H   3.18494  -5.18845  -1.85880
  H   4.74834  -4.33865  -1.67250
  N   4.16374  -1.16485   2.50980
  C  -4.79236   3.39065   1.47040
  C  -3.31896   2.34045   0.03060
  C  -2.45006   4.09705   1.62840
  C  -5.74866   2.57365   0.61890
  C  -4.74506   1.81575  -0.31610
  C  -1.68406   2.93955   2.38960
  C  -0.58296   3.50205   3.42720
  C  -3.76536   4.69735  -0.25200
  C  -1.24686   4.24335   4.62960
  H  -2.71796   2.30925  -0.87820
  H  -2.80536   1.56125   0.59370
  H  -5.25876   4.36095   1.64120
  H  -4.80036   2.85275   2.41840
  H  -2.59726   4.99365   2.23040
  H  -1.63276   4.37235   0.96170
  H  -6.33766   3.25685   0.00700
  H  -6.35916   1.95275   1.27450
  H  -4.92586   0.77355  -0.05300
  H  -5.16976   1.99345  -1.30410
  H  -1.15806   2.19535   1.79170
  H  -2.44146   2.37645   2.93490
  H   0.06604   4.06645   2.75770
  H   0.06594   2.69965   3.77830
  H  -2.90766   4.79465  -0.91770
  H  -3.94186   5.68405   0.17610
  H  -4.60306   4.48295  -0.91570
  H  -0.39896   4.54555   5.24440
  H  -1.92506   3.55555   5.13460
  H  -1.80736   5.17325   4.53290
  N  -3.53686   3.65255   0.76080
