  76
# Step 330, RM=CF3O3S[108] (8 atoms), CF3O3S[396] (8 atoms), C9H20N[44] (30 atoms), C9H20N[265] (30 atoms)
  C   0.88909   0.00259   0.31539
  F   1.21159   1.14771   0.96119
  F   1.18929  -1.07258   1.04429
  F   1.66509  -0.15135  -0.69261
  O  -1.16819  -1.29960  -0.87641
  O  -1.61561   0.27707   0.91839
  O  -0.83463   1.09281  -1.26341
  S  -0.93656   0.00913  -0.28651
  C   3.54639   2.02951   5.64449
  F   4.46259   2.41981   4.74539
  F   3.82109   2.61811   6.79749
  F   2.41689   2.49431   5.26969
  O   2.41399  -0.03115   6.71939
  O   4.81299  -0.02802   6.35889
  O   3.31109  -0.28581   4.51189
  S   3.51109   0.17341   5.82289
  C  -2.60311   0.65992   5.65289
  C  -1.09465   2.43331   5.47649
  C  -2.56951   2.35581   7.41279
  C  -0.75221   1.46501   4.30329
  C  -1.74387   0.27909   4.41779
  C  -3.82613   3.10921   6.83449
  C  -4.58308   4.17151   7.73089
  C  -0.84671   0.77710   7.28769
  C  -5.83728   4.78441   7.03919
  H  -3.46946   1.12671   5.18429
  H  -1.73841   3.23591   5.11669
  H  -2.90633  -0.18689   6.26859
  H  -0.26568   3.07041   5.78489
  H  -2.95408   1.69501   8.18969
  H  -1.88513   3.02401   7.93539
  H  -2.34234   0.22166   3.50859
  H  -1.15817  -0.60503   4.66949
  H   0.27729   1.12341   4.19549
  H  -0.93596   2.08811   3.42799
  H  -4.63257   2.38791   6.70249
  H  -3.73934   3.60691   5.86869
  H  -4.82071   3.62531   8.64379
  H  -3.84708   4.93281   7.98919
  H  -0.31335   0.02174   6.71059
  H  -1.32256   0.15846   8.04859
  H  -0.01929   1.36111   7.69069
  H  -5.55598   5.48811   6.25579
  H  -6.45609   3.99161   6.61879
  H  -6.42127   5.39341   7.72919
  N  -1.75737   1.54091   6.45179
  C  -5.41456   3.57911   0.58899
  C  -4.60011   3.77011  -1.58361
  C  -3.74722   5.31251   0.01689
  C  -5.98104   2.29681  -0.09541
  C  -5.39902   2.50631  -1.52391
  C  -2.58946   5.86521  -0.77701
  C  -2.25471   7.37731  -0.45411
  C  -3.09955   3.14881   0.26999
  C  -1.18227   7.83751  -1.30291
  H  -6.19495   4.33691   0.51909
  H  -5.07801   3.44191   1.61659
  H  -3.74749   3.69361  -2.25831
  H  -5.21736   4.61191  -1.89741
  H  -4.57718   5.97391  -0.23161
  H  -3.55430   5.52501   1.06849
  H  -6.08342   2.43381  -2.36911
  H  -5.51833   1.42351   0.36439
  H  -7.05666   2.17181  -0.22001
  H  -4.79175   1.61371  -1.67421
  H  -1.67414   5.27361  -0.79591
  H  -2.84431   5.96641  -1.83201
  H  -2.25386   7.46921   0.63199
  H  -3.24179   7.79031  -0.66191
  H  -2.32343   3.31681  -0.47671
  H  -3.34432   2.08791   0.32129
  H  -2.75257   3.39681   1.27309
  H  -0.96062   8.74271  -0.73751
  H  -1.35175   8.11031  -2.34451
  H  -0.34342   7.15551  -1.16391
  N  -4.18790   4.00851  -0.15821
