  76
# Step 240, RM=CF3O3S[332] (8 atoms), CF3O3S[13] (8 atoms), C9H20N[300] (30 atoms), C9H20N[497] (30 atoms)
  C  -0.55731  -0.10277  -0.72653
  F  -0.23205  -1.18157  -1.42963
  F  -0.63842   0.94373  -1.57843
  F  -1.77700  -0.34157  -0.32773
  O   1.84121   0.33433   0.19057
  O   0.02574   1.26763   1.36187
  O   0.52071  -1.07817   1.50397
  S   0.58596   0.12043   0.72347
  C  -6.33610  -0.01477   0.03827
  F  -5.17650  -0.52917  -0.19703
  F  -6.94640   0.24033  -1.10093
  F  -6.11420   1.15143   0.59127
  O  -7.79050  -1.97337   0.04997
  O  -6.45450  -1.74987   2.07947
  O  -8.28630  -0.19797   1.63227
  S  -7.33180  -1.11677   1.10507
  C   4.59260   1.53073   1.32197
  C   5.62130   3.38463   0.51367
  C   4.31070   2.07613  -1.04093
  C   3.71840   2.66163   1.86617
  C   4.43910   3.94803   1.36257
  C   4.87640   2.47253  -2.40203
  C   3.67860   2.46203  -3.46763
  C   6.44240   1.19543  -0.14583
  C   2.83990   1.27063  -3.73163
  H   4.04960   0.66193   0.94977
  H   5.22830   1.19733   2.14227
  H   5.69210   4.08523  -0.31833
  H   6.52650   3.48033   1.11327
  H   3.95060   1.06533  -1.23233
  H   3.43140   2.69013  -0.84623
  H   3.70820   4.56903   0.84447
  H   4.70230   4.53253   2.24407
  H   3.74650   2.62993   2.95527
  H   2.70220   2.47933   1.51657
  H   5.69740   1.92133  -2.86033
  H   5.30570   3.47263  -2.34203
  H   3.07630   3.28303  -3.07853
  H   4.03240   2.89813  -4.40183
  H   6.21890   0.14853  -0.35083
  H   7.20840   1.24863   0.62777
  H   7.02560   1.58663  -0.97943
  H   2.49630   0.76023  -2.83193
  H   2.01140   1.53923  -4.38703
  H   3.37240   0.56273  -4.36683
  N   5.21010   2.04723   0.10037
  C  -2.49100   3.17463   0.61187
  C  -4.48850   4.12143  -0.09483
  C  -3.06990   3.26953  -1.88783
  C  -3.00660   3.94323   1.86647
  C  -4.34240   4.56203   1.35177
  C  -3.68760   1.86203  -1.96943
  C  -3.50380   1.21983  -3.26053
  C  -2.48160   5.22303  -0.68863
  C  -4.14780  -0.19847  -3.32003
  H  -2.87350   2.16163   0.73707
  H  -1.40190   3.21723   0.60547
  H  -4.96640   4.86713  -0.73013
  H  -5.09360   3.21503  -0.07103
  H  -3.58860   3.96563  -2.54703
  H  -2.02460   3.17213  -2.18123
  H  -3.13870   3.32483   2.75427
  H  -2.30840   4.75673   2.06387
  H  -4.47940   5.63333   1.49897
  H  -5.09250   4.04213   1.94777
  H  -4.76060   1.96323  -1.80693
  H  -3.38540   1.15043  -1.20113
  H  -2.45230   1.19253  -3.54623
  H  -3.85010   1.94083  -4.00103
  H  -1.40210   5.26553  -0.83363
  H  -2.97890   5.82403  -1.44983
  H  -2.63960   5.95563   0.10287
  H  -3.88800  -0.94737  -2.57183
  H  -5.23150  -0.08117  -3.31993
  H  -3.96910  -0.52437  -4.34473
  N  -3.13800   3.90183  -0.54343
