  76
# Step 748, RM=CF3O3S[414] (8 atoms), CF3O3S[280] (8 atoms), C9H20N[366] (30 atoms), C9H20N[398] (30 atoms)
  C  -0.11244  -0.86520  -0.28877
  F   0.51426  -0.93850  -1.50017
  F   0.58346  -1.69220   0.44003
  F  -1.35904  -1.35200  -0.42897
  O  -0.35754   1.64530  -0.79237
  O  -0.81384   0.83410   1.45893
  O   1.46896   1.13640   0.61573
  S   0.04846   0.87960   0.35063
  C   4.18336  -4.07300  -0.13477
  F   3.06966  -3.42180   0.11403
  F   4.53676  -3.83250  -1.37277
  F   3.76336  -5.33580  -0.15087
  O   6.67646  -4.59940   0.48103
  O   5.68316  -2.47890   1.11473
  O   4.94286  -4.39050   2.29103
  S   5.59296  -3.86390   1.12603
  C  -0.53924   3.60470  -5.76027
  C  -1.22484   1.86450  -4.37067
  C  -2.66424   3.84390  -4.32767
  C   0.50756   2.52900  -5.84547
  C   0.12926   1.44530  -4.87787
  C  -3.57234   3.60220  -5.50667
  C  -5.00574   4.12110  -5.35887
  C  -0.50374   3.93160  -3.37087
  C  -5.88644   3.90790  -6.58417
  H  -0.13564   4.61720  -5.75307
  H  -1.28864   1.44730  -3.36567
  H  -2.03324   1.40440  -4.93877
  H  -1.25014   3.49270  -6.57897
  H  -3.18134   3.46960  -3.44407
  H  -2.71784   4.93100  -4.26887
  H   0.95516   1.39800  -4.16817
  H   0.09956   0.50660  -5.43097
  H   1.48826   2.96500  -5.65547
  H   0.62176   2.09370  -6.83827
  H  -3.54964   2.52700  -5.68427
  H  -3.14304   4.04240  -6.40667
  H  -4.89294   5.20250  -5.28197
  H  -5.49534   3.82160  -4.43227
  H  -0.56494   5.01340  -3.25267
  H   0.55856   3.68770  -3.37577
  H  -0.94634   3.59490  -2.43337
  H  -6.88034   4.34650  -6.49547
  H  -6.14674   2.85060  -6.63407
  H  -5.34934   4.18010  -7.49277
  N  -1.24794   3.33560  -4.47687
  C   4.36376   2.12420  -1.12717
  C   4.36356  -0.13600  -0.47977
  C   5.56346   0.45200  -2.35397
  C   5.18656   2.09940   0.24383
  C   5.29636   0.56990   0.53433
  C   5.84966  -0.97460  -2.79017
  C   7.13706  -1.13420  -3.59357
  C   3.09866   0.57560  -2.50237
  C   7.18496  -2.58620  -4.06537
  H   3.37986  -0.07230  -0.01467
  H   4.43816  -1.21730  -0.59557
  H   3.41886   2.57260  -0.82027
  H   4.72026   2.85000  -1.85817
  H   6.35676   0.90580  -1.75997
  H   5.56076   1.05650  -3.26097
  H   4.60096   2.58840   1.02233
  H   6.17406   2.55690   0.30593
  H   4.93036   0.25450   1.51143
  H   6.34316   0.33300   0.34393
  H   5.89676  -1.70580  -1.98327
  H   5.01096  -1.36680  -3.36547
  H   7.95726  -0.97200  -2.89427
  H   7.24146  -0.42010  -4.41037
  H   2.96196  -0.39430  -2.98067
  H   3.38616   1.26620  -3.29517
  H   2.22436   1.05100  -2.05797
  H   8.07376  -2.78890  -4.66277
  H   6.31966  -2.93380  -4.62977
  H   7.27016  -3.14710  -3.13457
  N   4.29616   0.72200  -1.60857
