  70
# Step 440, RM=BF4[1] (5 atoms), C9H20N[218] (30 atoms), C9H20N[285] (30 atoms), BF4[3] (5 atoms)
  B  -0.03101  -0.03346   0.02981
  F   1.31179   0.07264   0.24131
  F  -0.21931   0.76944  -1.08799
  F  -0.66281   0.45304   1.11971
  F  -0.41201  -1.27606  -0.28999
  C   0.28039  -3.94746  -2.78449
  C   2.49809  -3.48616  -3.31543
  C   0.80259  -3.07416  -4.92294
  C   1.03619  -4.08506  -1.48693
  C   2.41969  -4.33156  -2.05793
  C   1.76659  -2.31216  -5.85981
  C   1.58079  -2.69896  -7.34211
  C   1.12279  -1.57946  -3.01949
  C   2.68079  -2.01776  -8.13990
  H   0.12119  -4.86566  -3.35003
  H   2.78589  -4.24946  -4.03830
  H   3.31489  -2.76636  -3.36801
  H  -0.77371  -3.67226  -2.74981
  H   0.69759  -4.05646  -5.38371
  H  -0.17161  -2.58606  -4.89467
  H   0.80819  -5.01496  -0.96596
  H   2.54519  -5.40606  -2.19131
  H   3.16259  -4.04456  -1.31372
  H   0.95559  -3.17096  -0.89870
  H   1.71499  -1.22656  -5.77602
  H   2.73129  -2.59486  -5.43840
  H   1.60669  -3.78506  -7.43043
  H   0.55579  -2.52296  -7.66868
  H   0.18689  -1.02096  -3.03548
  H   1.83489  -0.89626  -3.48241
  H   1.29349  -1.54716  -1.94342
  H   3.52729  -1.66936  -7.54823
  H   3.00759  -2.64946  -8.96588
  H   2.34229  -1.03846  -8.47827
  N   1.16549  -2.96156  -3.49582
  C   3.61139  -1.98686   1.11773
  C   5.61859  -1.00296   1.66288
  C   4.19729   0.25524   0.18918
  C   3.41739  -1.46656   2.56724
  C   4.81639  -0.87536   2.93402
  C   5.30189   1.32494  -0.24159
  C   4.62499   2.65774  -0.48360
  C   5.22479  -1.71226  -0.73282
  C   3.89249   2.73674  -1.85474
  H   6.05429  -2.00126   1.62291
  H   6.45709  -0.30886   1.60529
  H   4.09839  -2.95396   1.24304
  H   2.70469  -2.07906   0.51988
  H   3.51769   0.24714  -0.66301
  H   3.54639   0.51134   1.02519
  H   4.76449   0.14054   3.32564
  H   2.66239  -0.68386   2.64126
  H   2.98629  -2.29606   3.12767
  H   5.28569  -1.49416   3.69880
  H   5.89949   1.10884  -1.12715
  H   6.03409   1.37634   0.56423
  H   3.93169   2.88564   0.32600
  H   5.42639   3.39494  -0.53064
  H   5.99509  -1.16846  -1.27974
  H   5.39979  -2.78076  -0.60708
  H   4.46619  -1.85486  -1.50244
  H   3.55009   3.75944  -2.01293
  H   3.01039   2.09634  -1.86612
  H   4.43939   2.38404  -2.72908
  N   4.64089  -1.09586   0.51554
  B  -3.79361  -5.01816  -1.17199
  F  -3.86851  -6.16366  -0.34789
  F  -3.72741  -5.51176  -2.51709
  F  -4.83661  -4.12936  -0.99099
  F  -2.57201  -4.37516  -0.90089
