  70
# Step 134, RM=BF4[378] (5 atoms), C9H20N[75] (30 atoms), C9H20N[185] (30 atoms), BF4[481] (5 atoms)
  B   0.02237   0.02138   0.00007
  F   1.29767  -0.55972   0.05417
  F  -0.01613   1.15378  -0.81943
  F  -0.85173  -0.90212  -0.50443
  F  -0.44253   0.29588   1.26967
  C  -3.69193  -1.88022  -2.55753
  C  -3.69233  -4.10682  -3.11023
  C  -2.76643  -2.42282  -4.74243
  C  -4.10923  -2.62692  -1.24793
  C  -4.12743  -4.10652  -1.65303
  C  -3.95923  -2.29002  -5.62993
  C  -3.51623  -1.74722  -7.07623
  C  -1.62003  -3.01552  -2.72383
  C  -4.74173  -1.88722  -8.00023
  H  -3.07773  -1.02152  -2.28673
  H  -4.56653  -1.51472  -3.09563
  H  -3.12903  -5.00482  -3.36373
  H  -4.56303  -4.26752  -3.74593
  H  -2.41973  -1.39012  -4.70423
  H  -2.01023  -3.04062  -5.22683
  H  -3.36153  -4.61842  -1.07033
  H  -5.13123  -4.51732  -1.54513
  H  -3.39813  -2.55842  -0.42463
  H  -5.04353  -2.22272  -0.85823
  H  -4.72563  -1.64122  -5.20583
  H  -4.38473  -3.27932  -5.79813
  H  -2.63633  -2.33172  -7.34513
  H  -3.26063  -0.69632  -6.94103
  H  -0.99463  -2.14022  -2.54813
  H  -1.03383  -3.75742  -3.26603
  H  -1.56373  -3.43072  -1.71763
  H  -5.05343  -2.92742  -8.09483
  H  -5.61023  -1.25582  -7.81293
  H  -4.47053  -1.60072  -9.01633
  N  -2.94623  -2.83842  -3.33273
  C   0.54597  -3.67402   1.33327
  C   1.94047  -2.50502   2.60627
  C   2.81367  -3.98662   0.91077
  C   0.60347  -2.29712   3.29117
  C  -0.35773  -2.96482   2.35197
  C   2.41867  -5.06642  -0.15323
  C   3.59087  -5.23232  -1.12323
  C   1.87737  -4.88572   2.90887
  C   4.00857  -3.91852  -1.85993
  H   2.73257  -2.40262   3.34797
  H   2.00597  -1.72992   1.84267
  H   0.45997  -3.01632   0.46837
  H   0.16627  -4.65252   1.03927
  H   3.13087  -3.05032   0.45167
  H   3.68327  -4.23462   1.51937
  H  -1.04183  -2.22762   1.93167
  H  -1.01493  -3.61112   2.93367
  H   0.59947  -2.70602   4.30157
  H   0.32127  -1.24832   3.38357
  H   2.25377  -6.01432   0.35897
  H   1.52287  -4.89592  -0.75033
  H   4.52697  -5.54262  -0.65903
  H   3.28557  -5.93412  -1.89933
  H   2.84267  -4.94122   3.41197
  H   1.11797  -5.02862   3.67767
  H   1.96777  -5.87462   2.45937
  H   4.63997  -4.20832  -2.69983
  H   4.52607  -3.18552  -1.24103
  H   3.09507  -3.47992  -2.26163
  N   1.80877  -3.76932   1.92247
  B  -0.42613   0.28268  -6.15463
  F   0.69177   0.82538  -6.84243
  F  -0.59623  -1.03972  -6.33013
  F  -1.57063   0.95408  -6.63763
  F  -0.25213   0.46068  -4.74423
